/*--------------------------------*- C++ -*----------------------------------*\
| =========                 |                                                 |
| \\      /  F ield         | OpenFOAM: The Open Source CFD Toolbox           |
|  \\    /   O peration     | Version:  v2012                                 |
|   \\  /    A nd           | Website:  www.openfoam.com                      |
|    \\/     M anipulation  |                                                 |
\*---------------------------------------------------------------------------*/
FoamFile
{
    version     2.0;
    format      ascii;
    class       volScalarField;
    location    "0.4";
    object      p;
}
// * * * * * * * * * * * * * * * * * * * * * * * * * * * * * * * * * * * * * //

dimensions      [0 2 -2 0 0 0 0];


internalField   nonuniform List<scalar> 
400
(
-0.0396139
-0.0444943
-0.0501683
-0.054172
-0.0551376
-0.052495
-0.0462514
-0.036813
-0.0248559
-0.0112408
0.00304644
0.01695
0.0294047
0.0394137
0.0461512
0.0490948
0.0481965
0.0440775
0.0382315
0.0332559
-0.0347756
-0.039791
-0.0441801
-0.0467923
-0.0470051
-0.0444208
-0.0390198
-0.0310958
-0.021164
-0.00989991
0.00190956
0.0134157
0.0237652
0.0321692
0.0379872
0.0408282
0.0406766
0.0379709
0.0334359
0.0283317
-0.0287796
-0.0356618
-0.0403786
-0.0427083
-0.0427344
-0.0402639
-0.0353321
-0.0282163
-0.0193616
-0.00934243
0.00116942
0.0114438
0.0207399
0.0283645
0.0337397
0.0364822
0.0365144
0.0340663
0.0291589
0.0221375
-0.0237692
-0.0331323
-0.0389412
-0.0415758
-0.0417
-0.0393079
-0.034522
-0.0276552
-0.0191407
-0.00951083
0.000616908
0.0105657
0.0196358
0.0271511
0.0325141
0.0352745
0.0352446
0.0324606
0.026375
0.0167701
-0.0211322
-0.0329936
-0.0400453
-0.0431046
-0.0433231
-0.040858
-0.0359233
-0.0288855
-0.0201907
-0.0103584
1.72063e-05
0.0102782
0.0197275
0.0276646
0.0334288
0.0364641
0.0364499
0.0332403
0.0258058
0.0135393
-0.0218795
-0.0361379
-0.0443914
-0.0478044
-0.0479584
-0.045159
-0.0397123
-0.0320483
-0.0226414
-0.0120158
-0.000763438
0.0104541
0.020916
0.0298662
0.0365474
0.0402644
0.0405388
0.037038
0.028289
0.0133828
-0.0268767
-0.0434218
-0.0527313
-0.0562854
-0.0560818
-0.0525759
-0.0461721
-0.0373714
-0.0266846
-0.0146499
-0.00186591
0.0109901
0.0231579
0.0338047
0.0420477
0.0470177
0.0480426
0.0445724
0.0346704
0.017141
-0.0370157
-0.0557378
-0.0658563
-0.0691913
-0.0681915
-0.0634854
-0.0555898
-0.0450832
-0.0325144
-0.0184333
-0.00344163
0.01177
0.0264003
0.0395295
0.0501267
0.0571111
0.0595657
0.0566599
0.0459084
0.0257738
-0.0533482
-0.0741177
-0.0846686
-0.0872437
-0.0848323
-0.0782852
-0.0682548
-0.0554031
-0.04031
-0.0235221
-0.00562562
0.012695
0.0306123
0.0471242
0.0610389
0.0710253
0.0758542
0.0743135
0.0632121
0.0405431
-0.0772096
-0.0998254
-0.110224
-0.111238
-0.106558
-0.0973367
-0.0843929
-0.0684745
-0.0501742
-0.0300043
-0.00849785
0.0137071
0.0357939
0.0567045
0.07509
0.0893369
0.0978236
0.0988142
0.0881711
0.0631902
-0.110384
-0.13447
-0.143769
-0.142016
-0.13386
-0.120868
-0.104061
-0.084263
-0.0620417
-0.0378229
-0.0120248
0.0148263
0.0419906
0.0684116
0.0926178
0.112703
0.126571
0.131778
0.122901
0.0961564
-0.155381
-0.180163
-0.186763
-0.180391
-0.167041
-0.14883
-0.127004
-0.102423
-0.075562
-0.0466782
-0.0159856
0.0161983
0.049312
0.0824015
0.113957
0.141816
0.163352
0.175207
0.170218
0.142906
-0.215987
-0.239763
-0.240874
-0.227013
-0.206025
-0.180699
-0.152472
-0.122143
-0.089974
-0.0559319
-0.0199033
0.0181321
0.0579336
0.0988066
0.139363
0.17731
0.20951
0.231504
0.233883
0.208484
-0.298462
-0.317372
-0.307984
-0.28217
-0.25011
-0.215251
-0.179048
-0.142024
-0.104029
-0.0645647
-0.0230328
0.0210844
0.0680491
0.117648
0.16888
0.219601
0.266349
0.303522
0.319054
0.300645
-0.413593
-0.418839
-0.389938
-0.345368
-0.297586
-0.25029
-0.204497
-0.160035
-0.11602
-0.0712581
-0.0244813
0.0255017
0.0796658
0.138562
0.201976
0.268427
0.334639
0.394195
0.43254
0.431478
-0.577895
-0.549588
-0.485855
-0.413273
-0.344298
-0.281732
-0.225256
-0.173285
-0.123759
-0.074524
-0.0234713
0.0314158
0.0920164
0.159952
0.236309
0.321088
0.412177
0.503385
0.579849
0.617341
-0.819211
-0.711146
-0.587839
-0.477041
-0.382179
-0.302901
-0.236202
-0.178078
-0.12478
-0.0729961
-0.0197
0.0380103
0.103014
0.178251
0.26667
0.370836
0.491261
0.624013
0.761801
0.882624
-1.23848
-0.931291
-0.699556
-0.535816
-0.409984
-0.313134
-0.237469
-0.175179
-0.120242
-0.0680453
-0.014673
0.0436623
0.11085
0.191358
0.290689
0.415521
0.571458
0.761709
1.00732
1.31774
-2.07403
-1.28781
-0.845861
-0.60491
-0.441238
-0.32513
-0.240727
-0.175023
-0.119227
-0.0672709
-0.0143149
0.0440544
0.112733
0.197791
0.307835
0.455555
0.656757
0.93537
1.38691
2.13053
-2.63639
-1.28162
-0.730698
-0.492509
-0.347608
-0.251638
-0.185273
-0.1355
-0.0943117
-0.0564741
-0.018
0.0247008
0.0755217
0.139558
0.224611
0.344018
0.520598
0.803257
1.3753
2.60138
)
;

boundaryField
{
    movingWall
    {
        type            fixedValue;
        value           uniform 0;
    }
    fixedWalls
    {
        type            zeroGradient;
    }
    frontAndBack
    {
        type            empty;
    }
}


// ************************************************************************* //
