/*--------------------------------*- C++ -*----------------------------------*\
| =========                 |                                                 |
| \\      /  F ield         | OpenFOAM: The Open Source CFD Toolbox           |
|  \\    /   O peration     | Version:  v2012                                 |
|   \\  /    A nd           | Website:  www.openfoam.com                      |
|    \\/     M anipulation  |                                                 |
\*---------------------------------------------------------------------------*/
FoamFile
{
    version     2.0;
    format      ascii;
    class       surfaceScalarField;
    location    "0.4";
    object      phi;
}
// * * * * * * * * * * * * * * * * * * * * * * * * * * * * * * * * * * * * * //

dimensions      [0 3 -1 0 0 0 0];
oriented        oriented;


internalField   nonuniform List<scalar> 
760
(
1.00767e-08
-1.00768e-08
-2.37e-08
3.3776e-08
-1.03472e-07
7.97717e-08
-2.146e-07
1.11129e-07
-3.40497e-07
1.25898e-07
-4.65913e-07
1.25416e-07
-5.77977e-07
1.12063e-07
-6.66524e-07
8.85461e-08
-7.24091e-07
5.75661e-08
-7.45869e-07
2.17783e-08
-7.29749e-07
-1.61193e-08
-6.76476e-07
-5.32718e-08
-5.8989e-07
-8.65859e-08
-4.77169e-07
-1.1272e-07
-3.4898e-07
-1.2819e-07
-2.19328e-07
-1.29653e-07
-1.04844e-07
-1.14484e-07
-2.32028e-08
-8.16415e-08
1.07185e-08
-3.39202e-08
1.07199e-08
-3.21816e-08
2.21057e-08
-1.59277e-07
1.60871e-07
-3.74427e-07
2.94921e-07
-6.50849e-07
3.87551e-07
-9.55637e-07
4.30687e-07
-1.25625e-06
4.26026e-07
-1.52379e-06
3.79613e-07
-1.73468e-06
2.99433e-07
-1.87127e-06
1.94154e-07
-1.92222e-06
7.27278e-08
-1.88276e-06
-5.55741e-08
-1.75506e-06
-1.80974e-07
-1.54858e-06
-2.93074e-07
-1.28032e-06
-3.80971e-07
-9.74755e-07
-4.33758e-07
-6.62789e-07
-4.41619e-07
-3.79525e-07
-3.9775e-07
-1.59971e-07
-3.01197e-07
-3.16117e-08
-1.6228e-07
-2.08907e-08
-8.04941e-08
1.02601e-07
-3.04874e-07
3.85251e-07
-6.45004e-07
6.3505e-07
-1.0612e-06
8.03747e-07
-1.50895e-06
8.78439e-07
-1.94469e-06
8.61763e-07
-2.32953e-06
7.64451e-07
-2.63143e-06
6.01334e-07
-2.82632e-06
3.8905e-07
-2.89873e-06
1.45132e-07
-2.84219e-06
-1.12107e-07
-2.65977e-06
-3.63395e-07
-2.36444e-06
-5.88406e-07
-1.97933e-06
-7.66085e-07
-1.53737e-06
-8.75711e-07
-1.07997e-06
-8.9902e-07
-6.54028e-07
-8.23693e-07
-3.07043e-07
-6.48182e-07
-8.00676e-08
-3.89257e-07
-1.00958e-07
-1.23128e-07
2.25729e-07
-4.39184e-07
7.01308e-07
-8.95924e-07
1.09179e-06
-1.43797e-06
1.34579e-06
-2.00956e-06
1.45003e-06
-2.5585e-06
1.41069e-06
-3.03911e-06
1.24507e-06
-3.41415e-06
9.7637e-07
-3.65572e-06
6.30619e-07
-3.74588e-06
2.35292e-07
-3.67706e-06
-1.8092e-07
-3.45258e-06
-5.87877e-07
-3.08713e-06
-9.53858e-07
-2.60717e-06
-1.24604e-06
-2.05079e-06
-1.43209e-06
-1.46656e-06
-1.48326e-06
-9.1089e-07
-1.37936e-06
-4.43745e-07
-1.11533e-06
-1.2299e-07
-7.10013e-07
-2.23949e-07
-1.60736e-07
3.86464e-07
-5.61823e-07
1.10239e-06
-1.12749e-06
1.65746e-06
-1.78539e-06
2.00369e-06
-2.4682e-06
2.13284e-06
-3.11613e-06
2.05862e-06
-3.67863e-06
1.80757e-06
-4.11535e-06
1.4131e-06
-4.39649e-06
9.11753e-07
-4.50284e-06
3.41651e-07
-4.42607e-06
-2.57689e-07
-4.1691e-06
-8.44853e-07
-3.74681e-06
-1.37614e-06
-3.18687e-06
-1.80599e-06
-2.53016e-06
-2.0888e-06
-1.83054e-06
-2.18288e-06
-1.15318e-06
-2.05672e-06
-5.71301e-07
-1.6972e-06
-1.61596e-07
-1.11972e-06
-3.85546e-07
-1.95423e-07
5.81886e-07
-6.76465e-07
1.58344e-06
-1.3445e-06
2.3255e-06
-2.10968e-06
2.76887e-06
-2.89308e-06
2.91625e-06
-3.62817e-06
2.7937e-06
-4.26107e-06
2.44047e-06
-4.75019e-06
1.90222e-06
-5.06539e-06
1.22695e-06
-5.18729e-06
4.63549e-07
-5.107e-06
-3.37973e-07
-4.82645e-06
-1.12541e-06
-4.35928e-06
-1.84331e-06
-3.73236e-06
-2.43291e-06
-2.9873e-06
-2.83386e-06
-2.18157e-06
-2.9886e-06
-1.38847e-06
-2.84982e-06
-6.95172e-07
-2.3905e-06
-1.98669e-07
-1.61622e-06
-5.84214e-07
-2.29142e-07
8.11028e-07
-7.86992e-07
2.14129e-06
-1.55147e-06
3.08998e-06
-2.41477e-06
3.63217e-06
-3.28679e-06
3.78826e-06
-4.09553e-06
3.60244e-06
-4.78574e-06
3.13068e-06
-5.31662e-06
2.4331e-06
-5.65952e-06
1.56984e-06
-5.79605e-06
6.00083e-07
-5.71714e-06
-4.16885e-07
-5.42308e-06
-1.41947e-06
-4.92479e-06
-2.34159e-06
-4.24613e-06
-3.11157e-06
-3.4269e-06
-3.65309e-06
-2.526e-06
-3.8895e-06
-1.62356e-06
-3.75227e-06
-8.20852e-07
-3.1932e-06
-2.3682e-07
-2.20025e-06
-8.21034e-07
-2.63482e-07
1.07451e-06
-8.96335e-07
2.77414e-06
-1.75062e-06
3.94426e-06
-2.6999e-06
4.58146e-06
-3.64387e-06
4.73223e-06
-4.50731e-06
4.46589e-06
-5.23637e-06
3.85974e-06
-5.79384e-06
2.99058e-06
-6.1549e-06
1.9309e-06
-6.30371e-06
7.48891e-07
-6.23156e-06
-4.89032e-07
-5.93661e-06
-1.71442e-06
-5.42536e-06
-2.85284e-06
-4.71597e-06
-3.82096e-06
-3.84308e-06
-4.52598e-06
-2.86356e-06
-4.86902e-06
-1.86175e-06
-4.75407e-06
-9.52356e-07
-4.1026e-06
-2.78187e-07
-2.87442e-06
-1.09922e-06
-2.99743e-07
1.37425e-06
-1.00612e-06
3.48052e-06
-1.94081e-06
4.87894e-06
-2.9578e-06
5.59845e-06
-3.94856e-06
5.72299e-06
-4.83828e-06
5.35561e-06
-5.57862e-06
4.60008e-06
-6.13985e-06
3.55181e-06
-6.50403e-06
2.29508e-06
-6.65997e-06
9.04825e-07
-6.60025e-06
-5.48753e-07
-6.3205e-06
-1.99417e-06
-5.82103e-06
-3.35231e-06
-5.11107e-06
-4.53093e-06
-4.21556e-06
-5.42148e-06
-3.18416e-06
-5.90042e-06
-2.10084e-06
-5.83739e-06
-1.09137e-06
-5.11207e-06
-3.24368e-07
-3.64142e-06
-1.42359e-06
-3.3924e-07
1.71349e-06
-1.11674e-06
4.25802e-06
-2.11664e-06
5.87884e-06
-3.17267e-06
6.65448e-06
-4.17181e-06
6.72213e-06
-5.04538e-06
6.22918e-06
-5.75646e-06
5.31115e-06
-6.28782e-06
4.08317e-06
-6.6323e-06
2.63956e-06
-6.78597e-06
1.05849e-06
-6.74404e-06
-5.90682e-07
-6.49956e-06
-2.23864e-06
-6.04496e-06
-3.80691e-06
-5.37689e-06
-5.19899e-06
-4.50495e-06
-6.29342e-06
-3.46427e-06
-6.94111e-06
-2.33088e-06
-6.97077e-06
-1.23656e-06
-6.2064e-06
-3.76505e-07
-4.50147e-06
-1.80009e-06
-3.83805e-07
2.0973e-06
-1.22732e-06
5.10154e-06
-2.26694e-06
6.91845e-06
-3.31691e-06
7.70446e-06
-4.26676e-06
7.67198e-06
-5.06268e-06
7.02509e-06
-5.68706e-06
5.93553e-06
-6.14138e-06
4.53749e-06
-6.43364e-06
2.93183e-06
-6.57005e-06
1.1949e-06
-6.55014e-06
-6.10597e-07
-6.3648e-06
-2.42398e-06
-5.99742e-06
-4.1743e-06
-5.42865e-06
-5.76776e-06
-4.64634e-06
-7.07574e-06
-3.66155e-06
-7.92589e-06
-2.53098e-06
-8.10135e-06
-1.38245e-06
-7.35492e-06
-4.35408e-07
-5.44851e-06
-2.2355e-06
-4.36423e-07
2.53372e-06
-1.33495e-06
6.00007e-06
-2.37099e-06
7.95449e-06
-3.3447e-06
8.67817e-06
-4.16087e-06
8.48815e-06
-4.79337e-06
7.65759e-06
-5.25381e-06
6.39598e-06
-5.56895e-06
4.85263e-06
-5.76599e-06
3.12887e-06
-5.8638e-06
1.29272e-06
-5.86795e-06
-6.06446e-07
-5.76831e-06
-2.52362e-06
-5.5392e-06
-4.4034e-06
-5.14316e-06
-6.1638e-06
-4.54033e-06
-7.67857e-06
-3.70668e-06
-8.75954e-06
-2.66344e-06
-9.14459e-06
-1.51709e-06
-8.50127e-06
-5.01583e-07
-6.46402e-06
-2.73708e-06
-5.01832e-07
3.03555e-06
-1.43147e-06
6.92971e-06
-2.38982e-06
8.91284e-06
-3.17935e-06
9.46771e-06
-3.7423e-06
9.0511e-06
-4.09765e-06
8.01293e-06
-4.29691e-06
6.59524e-06
-4.39732e-06
4.95304e-06
-4.44738e-06
3.17893e-06
-4.47962e-06
1.32496e-06
-4.50679e-06
-5.79268e-07
-4.51958e-06
-2.51083e-06
-4.48537e-06
-4.43761e-06
-4.34935e-06
-6.29983e-06
-4.04087e-06
-7.98705e-06
-3.49034e-06
-9.31007e-06
-2.66338e-06
-9.97155e-06
-1.6169e-06
-9.54775e-06
-5.74804e-07
-7.50611e-06
-3.31189e-06
-5.85728e-07
3.62128e-06
-1.49342e-06
7.8374e-06
-2.24624e-06
9.66566e-06
-2.68894e-06
9.91041e-06
-2.83681e-06
9.19897e-06
-2.77448e-06
7.9506e-06
-2.6013e-06
6.42206e-06
-2.40547e-06
4.75721e-06
-2.25435e-06
3.0278e-06
-2.19184e-06
1.26245e-06
-2.23759e-06
-5.33516e-07
-2.38553e-06
-2.36289e-06
-2.60109e-06
-4.22205e-06
-2.81808e-06
-6.08283e-06
-2.93853e-06
-7.86659e-06
-2.84237e-06
-9.40623e-06
-2.41888e-06
-1.0395e-05
-1.63449e-06
-1.03321e-05
-6.51565e-07
-8.48904e-06
-3.96345e-06
-6.87641e-07
4.30892e-06
-1.45336e-06
8.60312e-06
-1.78078e-06
9.99308e-06
-1.64063e-06
9.77026e-06
-1.17033e-06
8.72867e-06
-5.36253e-07
7.31652e-06
1.16744e-07
5.76907e-06
6.79108e-07
4.19485e-06
1.07482e-06
2.63209e-06
1.2559e-06
1.08137e-06
1.19857e-06
-4.76186e-07
9.03094e-07
-2.06742e-06
3.97791e-07
-3.71675e-06
-2.52947e-07
-5.43209e-06
-9.38709e-07
-7.18083e-06
-1.49788e-06
-8.84705e-06
-1.73263e-06
-1.01603e-05
-1.46957e-06
-1.05952e-05
-7.15545e-07
-9.24306e-06
-4.679e-06
-7.73694e-07
5.08262e-06
-1.1239e-06
8.95333e-06
-6.5881e-07
9.52799e-06
3.78895e-07
8.73256e-06
1.68529e-06
7.42228e-06
3.02043e-06
5.98138e-06
4.21917e-06
4.57033e-06
5.17635e-06
3.23767e-06
5.82735e-06
1.98109e-06
6.13304e-06
7.75684e-07
6.07122e-06
-4.14369e-07
5.63451e-06
-1.63071e-06
4.83454e-06
-2.91678e-06
3.71355e-06
-4.3111e-06
2.36419e-06
-5.83147e-06
9.55296e-07
-7.43816e-06
-2.48184e-07
-8.95682e-06
-8.99784e-07
-9.9436e-06
-7.0876e-07
-9.43409e-06
-5.38776e-06
-6.88933e-07
5.77155e-06
-1.64783e-08
8.28087e-06
1.79795e-06
7.71357e-06
4.07618e-06
6.45432e-06
6.36839e-06
5.13008e-06
8.42924e-06
3.92053e-06
1.0135e-05
2.86455e-06
1.14285e-05
1.94417e-06
1.2284e-05
1.12561e-06
1.26869e-05
3.72756e-07
1.2624e-05
-3.51461e-07
1.20802e-05
-1.08694e-06
1.10413e-05
-1.87782e-06
9.50427e-06
-2.77409e-06
7.50085e-06
-3.82805e-06
5.13918e-06
-5.07649e-06
2.66869e-06
-6.48633e-06
5.64608e-07
-7.83952e-06
-4.4587e-07
-8.42361e-06
-5.83363e-06
1.83875e-07
5.58768e-06
3.04717e-06
5.41757e-06
6.87955e-06
3.88119e-06
1.05662e-05
2.7677e-06
1.37399e-05
1.95636e-06
1.63142e-05
1.3462e-06
1.83004e-05
8.7841e-07
1.97365e-05
5.08076e-07
2.06577e-05
2.04345e-07
2.10846e-05
-5.41704e-08
2.10178e-05
-2.84631e-07
2.04374e-05
-5.06507e-07
1.93011e-05
-7.41552e-07
1.75478e-05
-1.02077e-06
1.51087e-05
-1.38898e-06
1.19417e-05
-1.90944e-06
8.11458e-06
-2.65922e-06
3.99362e-06
-3.71855e-06
6.67413e-07
-5.09741e-06
-5.16622e-06
4.12593e-06
1.46175e-06
1.11336e-05
-1.59008e-06
1.7009e-05
-1.99424e-06
2.14854e-05
-1.70873e-06
2.48268e-05
-1.38499e-06
2.72836e-05
-1.11064e-06
2.90538e-05
-8.91794e-07
3.02737e-05
-7.11806e-07
3.10283e-05
-5.50212e-07
3.13631e-05
-3.8903e-07
3.12913e-05
-2.12809e-07
3.07925e-05
-7.73976e-09
2.98115e-05
2.39456e-07
2.82477e-05
5.43033e-07
2.59411e-05
9.17676e-07
2.26581e-05
1.3735e-06
1.81067e-05
1.89219e-06
1.20233e-05
2.36488e-06
4.68273e-06
2.24315e-06
-4.8349e-07
2.14348e-05
3.13749e-05
3.59838e-05
3.87343e-05
4.05004e-05
4.16726e-05
4.24626e-05
4.29812e-05
4.32877e-05
4.34118e-05
4.33626e-05
4.31303e-05
4.26827e-05
4.19556e-05
4.08276e-05
3.90647e-05
3.62036e-05
3.1217e-05
2.0812e-05
)
;

boundaryField
{
    movingWall
    {
        type            calculated;
        value           nonuniform List<scalar> 
20
(
-1.99731e-05
-1.15302e-05
-6.60307e-06
-4.45928e-06
-3.15105e-06
-2.28288e-06
-1.68173e-06
-1.23044e-06
-8.56712e-07
-5.13161e-07
-1.63612e-07
2.24598e-07
6.8699e-07
1.27017e-06
2.04573e-06
3.13638e-06
4.75325e-06
7.35147e-06
1.26482e-05
2.03285e-05
)
;
    }
    fixedWalls
    {
        type            calculated;
        value           uniform 0;
    }
    frontAndBack
    {
        type            empty;
        value           nonuniform List<scalar> 0();
    }
}


// ************************************************************************* //
