/*--------------------------------*- C++ -*----------------------------------*\
| =========                 |                                                 |
| \\      /  F ield         | OpenFOAM: The Open Source CFD Toolbox           |
|  \\    /   O peration     | Version:  v2012                                 |
|   \\  /    A nd           | Website:  www.openfoam.com                      |
|    \\/     M anipulation  |                                                 |
\*---------------------------------------------------------------------------*/
FoamFile
{
    version     2.0;
    format      ascii;
    class       volVectorField;
    location    "0.4";
    object      U;
}
// * * * * * * * * * * * * * * * * * * * * * * * * * * * * * * * * * * * * * //

dimensions      [0 1 -1 0 0 0 0];


internalField   nonuniform List<vector> 
400
(
(0.000194677 -0.000192325 0)
(4.86632e-05 0.00012522 0)
(-0.0011183 0.000501286 0)
(-0.00308884 0.0007582 0)
(-0.00552365 0.000880752 0)
(-0.00809588 0.00088517 0)
(-0.0105203 0.000793701 0)
(-0.012565 0.000628703 0)
(-0.014053 0.000410586 0)
(-0.0148614 0.000158201 0)
(-0.0149206 -0.00010982 0)
(-0.0142161 -0.00037369 0)
(-0.0127931 -0.000611421 0)
(-0.0107612 -0.000798333 0)
(-0.00829946 -0.000907361 0)
(-0.00565732 -0.000910772 0)
(-0.00314684 -0.000784289 0)
(-0.00112149 -0.000514337 0)
(6.52704e-05 -0.000123585 0)
(0.000203244 0.000199522 0)
(-0.000100682 -6.95803e-05 0)
(-0.00147178 0.00149316 0)
(-0.00497112 0.00312094 0)
(-0.0100449 0.0042556 0)
(-0.016014 0.00479586 0)
(-0.0222127 0.0047726 0)
(-0.0280187 0.00426515 0)
(-0.0329008 0.00337092 0)
(-0.0364441 0.00219112 0)
(-0.0383574 0.000827456 0)
(-0.0384783 -0.00061581 0)
(-0.036779 -0.00202855 0)
(-0.0333743 -0.00329241 0)
(-0.0285287 -0.00428123 0)
(-0.0226598 -0.0048659 0)
(-0.0163294 -0.00492642 0)
(-0.0102095 -0.00437455 0)
(-0.00501674 -0.00318956 0)
(-0.00146072 -0.00150177 0)
(-8.97405e-05 8.97113e-05 0)
(-0.000479959 0.00105971 0)
(-0.00321376 0.0050057 0)
(-0.00899507 0.00868698 0)
(-0.0167999 0.0112249 0)
(-0.0256602 0.0123925 0)
(-0.0346956 0.0122237 0)
(-0.0430746 0.0108777 0)
(-0.0500787 0.00857394 0)
(-0.0551425 0.00555582 0)
(-0.0578684 0.00207806 0)
(-0.058035 -0.0015941 0)
(-0.0556064 -0.00518114 0)
(-0.0507412 -0.00838725 0)
(-0.0438004 -0.0109046 0)
(-0.0353488 -0.0124285 0)
(-0.0261413 -0.0126895 0)
(-0.017072 -0.0115064 0)
(-0.00909043 -0.00886437 0)
(-0.00321286 -0.00505026 0)
(-0.000467501 -0.0010289 0)
(-0.000805001 0.00311359 0)
(-0.00480253 0.0104538 0)
(-0.0127411 0.0167261 0)
(-0.0230544 0.0209068 0)
(-0.0344648 0.0227089 0)
(-0.04591 0.0222034 0)
(-0.0564102 0.0196587 0)
(-0.0651272 0.0154465 0)
(-0.0714054 0.00998677 0)
(-0.0747847 0.00372432 0)
(-0.0750081 -0.0028755 0)
(-0.0720307 -0.00932322 0)
(-0.0660303 -0.0151037 0)
(-0.0574175 -0.0196848 0)
(-0.0468413 -0.0225448 0)
(-0.0351788 -0.023225 0)
(-0.0234858 -0.0214153 0)
(-0.0129156 -0.0170683 0)
(-0.00482061 -0.0105651 0)
(-0.000791171 -0.00307481 0)
(-0.0010813 0.00596608 0)
(-0.00623148 0.0176543 0)
(-0.0161904 0.0269893 0)
(-0.0288375 0.0329568 0)
(-0.0425684 0.0353145 0)
(-0.0561464 0.0342397 0)
(-0.0684757 0.0301551 0)
(-0.0786414 0.0236171 0)
(-0.0859402 0.0152461 0)
(-0.0898821 0.00569555 0)
(-0.0901906 -0.00435294 0)
(-0.0868088 -0.0141839 0)
(-0.0799113 -0.0230445 0)
(-0.0699199 -0.0301545 0)
(-0.05752 -0.0347428 0)
(-0.0436664 -0.0361185 0)
(-0.0295461 -0.0337846 0)
(-0.0165166 -0.0275843 0)
(-0.00629748 -0.0178877 0)
(-0.00107096 -0.00593 0)
(-0.00133205 0.00953576 0)
(-0.00756027 0.0264951 0)
(-0.0194256 0.0393562 0)
(-0.0342557 0.047229 0)
(-0.0501123 0.0500289 0)
(-0.0655919 0.0481278 0)
(-0.0795079 0.0421653 0)
(-0.0909053 0.032921 0)
(-0.0990696 0.021236 0)
(-0.103509 0.0079809 0)
(-0.103941 -0.00594583 0)
(-0.100294 -0.0196037 0)
(-0.0927167 -0.0319986 0)
(-0.0816072 -0.0420881 0)
(-0.0676438 -0.0488203 0)
(-0.0518181 -0.051218 0)
(-0.0354238 -0.0485174 0)
(-0.0200229 -0.0403486 0)
(-0.00772715 -0.0269538 0)
(-0.00133615 -0.00953384 0)
(-0.0015784 0.0137843 0)
(-0.00885137 0.0368982 0)
(-0.0225358 0.0537133 0)
(-0.039398 0.0635659 0)
(-0.0571643 0.0666521 0)
(-0.0742818 0.0636437 0)
(-0.089508 0.0554715 0)
(-0.10189 0.043182 0)
(-0.110742 0.027854 0)
(-0.115602 0.0105719 0)
(-0.116198 -0.00756364 0)
(-0.11244 -0.0254053 0)
(-0.104431 -0.0417304 0)
(-0.0925054 -0.0552313 0)
(-0.0772853 -0.0645466 0)
(-0.0597487 -0.0683504 0)
(-0.0412571 -0.0655132 0)
(-0.0235643 -0.0553222 0)
(-0.00919508 -0.0377548 0)
(-0.00161421 -0.0138827 0)
(-0.00183832 0.0187094 0)
(-0.0101567 0.0488177 0)
(-0.025583 0.0699421 0)
(-0.0442887 0.081766 0)
(-0.0636681 0.0849125 0)
(-0.0820543 0.0804789 0)
(-0.098202 0.0697738 0)
(-0.111218 0.0541557 0)
(-0.120501 0.0349509 0)
(-0.125657 0.0134412 0)
(-0.126448 -0.00910333 0)
(-0.122765 -0.0313671 0)
(-0.114642 -0.0519314 0)
(-0.102308 -0.0692368 0)
(-0.0862635 -0.0815929 0)
(-0.0674023 -0.0872597 0)
(-0.047088 -0.0846241 0)
(-0.0272269 -0.0724692 0)
(-0.0107713 -0.0503307 0)
(-0.00192906 -0.0190217 0)
(-0.00212868 0.0243378 0)
(-0.011517 0.0622268 0)
(-0.0285879 0.0878942 0)
(-0.0488576 0.101542 0)
(-0.0694012 0.104411 0)
(-0.0885003 0.0981792 0)
(-0.104989 0.0846297 0)
(-0.118119 0.0654764 0)
(-0.127441 0.0422915 0)
(-0.132684 0.01652 0)
(-0.133672 -0.0104529 0)
(-0.130286 -0.037206 0)
(-0.122471 -0.0621824 0)
(-0.110296 -0.083609 0)
(-0.0940639 -0.0994652 0)
(-0.0744816 -0.107537 0)
(-0.052809 -0.105596 0)
(-0.0310251 -0.091715 0)
(-0.0125044 -0.0647453 0)
(-0.00230233 -0.0250342 0)
(-0.00247032 0.0307215 0)
(-0.0129688 0.0770946 0)
(-0.0315239 0.107341 0)
(-0.0529112 0.122449 0)
(-0.0739236 0.124539 0)
(-0.0928976 0.116059 0)
(-0.108871 0.099377 0)
(-0.12135 0.0765939 0)
(-0.13013 0.0495076 0)
(-0.135128 0.0196695 0)
(-0.136271 -0.0114993 0)
(-0.13344 -0.042562 0)
(-0.126476 -0.0719128 0)
(-0.115238 -0.097637 0)
(-0.0997372 -0.117415 0)
(-0.0803596 -0.128521 0)
(-0.0581026 -0.127968 0)
(-0.0348742 -0.112869 0)
(-0.0144191 -0.0810437 0)
(-0.00275678 -0.0320314 0)
(-0.00289621 0.0379437 0)
(-0.0145554 0.0933582 0)
(-0.0343041 0.127904 0)
(-0.0560829 0.143782 0)
(-0.0764958 0.144365 0)
(-0.0941109 0.133105 0)
(-0.108345 0.113053 0)
(-0.119102 0.0867114 0)
(-0.126527 0.0560531 0)
(-0.130793 0.0226515 0)
(-0.131976 -0.0121418 0)
(-0.129983 -0.0469929 0)
(-0.124543 -0.0803704 0)
(-0.115262 -0.110333 0)
(-0.101765 -0.134343 0)
(-0.0839573 -0.149167 0)
(-0.0623521 -0.150941 0)
(-0.038548 -0.135512 0)
(-0.0165136 -0.0991912 0)
(-0.00332129 -0.0401455 0)
(-0.0034641 0.0461374 0)
(-0.0163341 0.110882 0)
(-0.0367387 0.148939 0)
(-0.0577265 0.164437 0)
(-0.0759292 0.162509 0)
(-0.090428 0.147866 0)
(-0.101253 0.124321 0)
(-0.10887 0.0947377 0)
(-0.113872 0.0611725 0)
(-0.116754 0.0251047 0)
(-0.117778 -0.0123118 0)
(-0.116905 -0.0499855 0)
(-0.113768 -0.0866124 0)
(-0.107706 -0.120386 0)
(-0.0978854 -0.148703 0)
(-0.0835639 -0.167908 0)
(-0.0644935 -0.173197 0)
(-0.0415968 -0.158835 0)
(-0.0187447 -0.118984 0)
(-0.00403775 -0.0495268 0)
(-0.0042737 0.0555244 0)
(-0.0183656 0.129377 0)
(-0.0384127 0.169359 0)
(-0.05669 0.182708 0)
(-0.0703097 0.176973 0)
(-0.0792928 0.158361 0)
(-0.0845633 0.131429 0)
(-0.0872968 0.0992802 0)
(-0.0885981 0.0639041 0)
(-0.089304 0.0265403 0)
(-0.0898819 -0.0119926 0)
(-0.0903748 -0.050988 0)
(-0.0903651 -0.0895357 0)
(-0.0889631 -0.126167 0)
(-0.0848676 -0.158443 0)
(-0.076571 -0.1825 0)
(-0.0627641 -0.192669 0)
(-0.0431832 -0.181394 0)
(-0.0209831 -0.139899 0)
(-0.00496707 -0.0603442 0)
(-0.00547602 0.0664368 0)
(-0.0206239 0.148177 0)
(-0.038372 0.18727 0)
(-0.050842 0.19597 0)
(-0.0565002 0.184964 0)
(-0.0568813 0.162019 0)
(-0.0540651 0.132241 0)
(-0.0499963 0.0987144 0)
(-0.0462538 0.0631462 0)
(-0.0439576 0.0263756 0)
(-0.0437483 -0.011234 0)
(-0.0457717 -0.0494733 0)
(-0.0496362 -0.0879691 0)
(-0.0543447 -0.125803 0)
(-0.0582445 -0.161006 0)
(-0.0590806 -0.189887 0)
(-0.0542643 -0.206242 0)
(-0.0417375 -0.2007 0)
(-0.0228747 -0.160771 0)
(-0.00617752 -0.0727354 0)
(-0.00721555 0.0792396 0)
(-0.0226429 0.165659 0)
(-0.0343393 0.199301 0)
(-0.0361146 0.200238 0)
(-0.0292795 0.182735 0)
(-0.0174703 0.15575 0)
(-0.00399059 0.124419 0)
(0.00860524 0.0913935 0)
(0.0184844 0.0578291 0)
(0.0244293 0.0240292 0)
(0.0257322 -0.0101552 0)
(0.0221497 -0.0450444 0)
(0.0139396 -0.0808651 0)
(0.00198542 -0.11741 0)
(-0.012011 -0.153511 0)
(-0.0253327 -0.186194 0)
(-0.0341821 -0.209422 0)
(-0.0342146 -0.212578 0)
(-0.0234338 -0.179135 0)
(-0.00765301 -0.0866202 0)
(-0.00929347 0.0945083 0)
(-0.0224103 0.178562 0)
(-0.0208922 0.199929 0)
(-0.00468446 0.19002 0)
(0.0200151 0.165907 0)
(0.0473765 0.136494 0)
(0.0733418 0.106024 0)
(0.0952962 0.0761696 0)
(0.111623 0.0473004 0)
(0.121339 0.0191402 0)
(0.123856 -0.00891111 0)
(0.118875 -0.0376013 0)
(0.106404 -0.0676745 0)
(0.0869098 -0.0996504 0)
(0.0616322 -0.133396 0)
(0.0330673 -0.167267 0)
(0.00553089 -0.196509 0)
(-0.0145398 -0.210788 0)
(-0.0199453 -0.190639 0)
(-0.00891672 -0.101758 0)
(-0.0097711 0.113831 0)
(-0.0133446 0.181307 0)
(0.0142271 0.18142 0)
(0.0579049 0.159229 0)
(0.10512 0.130906 0)
(0.149427 0.10272 0)
(0.187492 0.0767976 0)
(0.217674 0.0533852 0)
(0.239259 0.0320155 0)
(0.251911 0.0119728 0)
(0.255384 -0.00756962 0)
(0.249397 -0.0275255 0)
(0.233629 -0.0488836 0)
(0.207837 -0.0726625 0)
(0.172173 -0.0997145 0)
(0.127829 -0.130125 0)
(0.0779838 -0.161737 0)
(0.0292194 -0.187308 0)
(-0.00527028 -0.188532 0)
(-0.00765571 -0.118263 0)
(0.00111308 0.128886 0)
(0.0243974 0.154781 0)
(0.0970234 0.128675 0)
(0.17628 0.0999001 0)
(0.245809 0.075142 0)
(0.303299 0.0548944 0)
(0.348782 0.0385134 0)
(0.382857 0.0250329 0)
(0.406313 0.0135757 0)
(0.419751 0.0034105 0)
(0.423398 -0.00611973 0)
(0.417071 -0.0156823 0)
(0.400145 -0.0260548 0)
(0.371556 -0.0382082 0)
(0.329939 -0.0533744 0)
(0.274061 -0.07296 0)
(0.203406 -0.0979655 0)
(0.119862 -0.127453 0)
(0.0392923 -0.152812 0)
(0.00569619 -0.125428 0)
(0.0699975 0.0606642 0)
(0.153723 0.0312716 0)
(0.282687 0.00833668 0)
(0.389952 -0.00102226 0)
(0.467609 -0.00480843 0)
(0.524471 -0.00643237 0)
(0.566061 -0.00712108 0)
(0.595543 -0.00730057 0)
(0.615027 -0.00707326 0)
(0.625802 -0.00642345 0)
(0.628448 -0.0053046 0)
(0.622899 -0.00367764 0)
(0.608423 -0.0015537 0)
(0.5835 0.000962351 0)
(0.545616 0.0035838 0)
(0.491039 0.00563058 0)
(0.413791 0.00552846 0)
(0.304513 -0.000300526 0)
(0.168986 -0.0188898 0)
(0.0722289 -0.0458448 0)
(0.397754 -0.21081 0)
(0.554081 -0.189748 0)
(0.67675 -0.136329 0)
(0.751717 -0.0984575 0)
(0.795451 -0.0722505 0)
(0.823602 -0.0537658 0)
(0.842654 -0.0403877 0)
(0.855449 -0.0301137 0)
(0.863537 -0.0215084 0)
(0.867771 -0.0135409 0)
(0.868522 -0.00540042 0)
(0.865788 0.00364046 0)
(0.859169 0.0143535 0)
(0.84775 0.0276953 0)
(0.829805 0.0450276 0)
(0.802151 0.0684291 0)
(0.757975 0.101022 0)
(0.68093 0.147741 0)
(0.549245 0.21283 0)
(0.36767 0.232645 0)
)
;

boundaryField
{
    movingWall
    {
        type            fixedValue;
        value           uniform (1 0 0);
    }
    fixedWalls
    {
        type            noSlip;
    }
    frontAndBack
    {
        type            empty;
    }
}


// ************************************************************************* //
