/*--------------------------------*- C++ -*----------------------------------*\
| =========                 |                                                 |
| \\      /  F ield         | OpenFOAM: The Open Source CFD Toolbox           |
|  \\    /   O peration     | Version:  v2012                                 |
|   \\  /    A nd           | Website:  www.openfoam.com                      |
|    \\/     M anipulation  |                                                 |
\*---------------------------------------------------------------------------*/
FoamFile
{
    version     2.0;
    format      ascii;
    class       volScalarField;
    location    "1.9";
    object      p;
}
// * * * * * * * * * * * * * * * * * * * * * * * * * * * * * * * * * * * * * //

dimensions      [0 2 -2 0 0 0 0];


internalField   nonuniform List<scalar> 
400
(
-0.0396143
-0.0444949
-0.0501694
-0.0541735
-0.0551394
-0.0524969
-0.0462532
-0.0368146
-0.024857
-0.0112415
0.00304627
0.0169503
0.0294053
0.0394146
0.0461522
0.0490958
0.0481972
0.0440778
0.0382312
0.0332552
-0.0347757
-0.0397914
-0.0441808
-0.0467933
-0.0470064
-0.0444222
-0.0390212
-0.031097
-0.0211649
-0.0099005
0.00190932
0.0134158
0.0237655
0.0321696
0.0379876
0.0408286
0.0406769
0.0379708
0.0334355
0.0283308
-0.0287793
-0.0356619
-0.040379
-0.0427089
-0.0427353
-0.0402649
-0.0353331
-0.0282173
-0.0193624
-0.00934305
0.00116905
0.0114437
0.0207399
0.0283647
0.0337397
0.0364821
0.0365141
0.0340659
0.0291582
0.0221363
-0.0237685
-0.0331321
-0.0389413
-0.0415762
-0.0417005
-0.0393086
-0.0345228
-0.0276561
-0.0191414
-0.0095115
0.00061637
0.0105654
0.0196356
0.027151
0.0325139
0.0352741
0.035244
0.0324598
0.0263739
0.0167685
-0.0211312
-0.0329933
-0.0400453
-0.0431049
-0.0433235
-0.0408586
-0.035924
-0.0288862
-0.0201914
-0.0103591
1.65273e-05
0.0102776
0.0197271
0.0276643
0.0334285
0.0364636
0.0364491
0.0332392
0.0258044
0.0135374
-0.0218784
-0.0361374
-0.0443914
-0.0478046
-0.0479588
-0.0451596
-0.039713
-0.032049
-0.0226421
-0.0120166
-0.000764202
0.0104533
0.0209152
0.0298655
0.0365468
0.0402637
0.040538
0.0370368
0.0282874
0.0133807
-0.0268758
-0.0434213
-0.0527313
-0.0562857
-0.0560823
-0.0525766
-0.0461729
-0.0373723
-0.0266855
-0.0146508
-0.00186677
0.0109892
0.0231569
0.0338038
0.0420469
0.0470168
0.0480416
0.0445711
0.0346688
0.0171389
-0.0370152
-0.0557376
-0.0658564
-0.0691917
-0.0681921
-0.0634862
-0.0555907
-0.0450843
-0.0325156
-0.0184344
-0.00344268
0.011769
0.0263993
0.0395284
0.0501256
0.05711
0.0595646
0.0566587
0.0459068
0.0257719
-0.0533482
-0.0741179
-0.084669
-0.0872442
-0.084833
-0.0782861
-0.0682559
-0.0554044
-0.0403114
-0.0235235
-0.005627
0.0126938
0.0306111
0.0471231
0.0610378
0.0710242
0.075853
0.0743123
0.0632108
0.0405415
-0.0772103
-0.0998261
-0.110225
-0.111239
-0.106559
-0.0973377
-0.084394
-0.0684759
-0.0501758
-0.0300061
-0.00849957
0.0137055
0.0357925
0.0567032
0.0750888
0.0893358
0.0978225
0.0988131
0.0881699
0.0631889
-0.110385
-0.134471
-0.14377
-0.142017
-0.133861
-0.120869
-0.104062
-0.0842645
-0.0620434
-0.0378247
-0.0120268
0.0148244
0.0419889
0.0684102
0.0926166
0.112701
0.12657
0.131777
0.1229
0.0961556
-0.155383
-0.180164
-0.186764
-0.180393
-0.167042
-0.148832
-0.127006
-0.102425
-0.0755637
-0.0466801
-0.0159876
0.0161963
0.0493101
0.0823999
0.113956
0.141815
0.163351
0.175206
0.170218
0.142905
-0.215989
-0.239765
-0.240875
-0.227014
-0.206026
-0.180701
-0.152474
-0.122144
-0.0899758
-0.0559338
-0.0199053
0.0181301
0.0579317
0.0988049
0.139362
0.177309
0.209509
0.231504
0.233882
0.208484
-0.298464
-0.317374
-0.307985
-0.282171
-0.250111
-0.215253
-0.179049
-0.142026
-0.104031
-0.0645666
-0.0230347
0.0210825
0.0680473
0.117646
0.168879
0.2196
0.266348
0.303522
0.319054
0.300646
-0.413595
-0.41884
-0.389939
-0.345369
-0.297587
-0.250291
-0.204498
-0.160037
-0.116022
-0.07126
-0.0244833
0.0254999
0.0796641
0.138561
0.201975
0.268426
0.334639
0.394195
0.43254
0.431479
-0.577896
-0.549589
-0.485856
-0.413273
-0.344299
-0.281733
-0.225256
-0.173286
-0.123761
-0.0745258
-0.0234731
0.031414
0.0920148
0.159951
0.236308
0.321088
0.412177
0.503386
0.579849
0.617342
-0.819212
-0.711146
-0.587839
-0.477041
-0.382179
-0.302901
-0.236203
-0.178079
-0.124781
-0.0729976
-0.0197017
0.0380086
0.103013
0.178249
0.266669
0.370836
0.491261
0.624013
0.761802
0.882626
-1.23849
-0.931292
-0.699556
-0.535816
-0.409983
-0.313134
-0.237469
-0.175179
-0.120243
-0.0680465
-0.0146745
0.0436607
0.110848
0.191357
0.290688
0.415521
0.571457
0.761709
1.00732
1.31774
-2.07403
-1.28781
-0.845861
-0.604909
-0.441237
-0.325129
-0.240727
-0.175023
-0.119228
-0.067272
-0.0143164
0.0440527
0.112731
0.197789
0.307834
0.455553
0.656756
0.93537
1.38691
2.13053
-2.63639
-1.28162
-0.730697
-0.492508
-0.347607
-0.251637
-0.185272
-0.135499
-0.0943118
-0.0564748
-0.0180013
0.024699
0.0755197
0.139556
0.224609
0.344016
0.520597
0.803257
1.3753
2.60138
)
;

boundaryField
{
    movingWall
    {
        type            fixedValue;
        value           uniform 0;
    }
    fixedWalls
    {
        type            zeroGradient;
    }
    frontAndBack
    {
        type            empty;
    }
}


// ************************************************************************* //
