/*--------------------------------*- C++ -*----------------------------------*\
| =========                 |                                                 |
| \\      /  F ield         | OpenFOAM: The Open Source CFD Toolbox           |
|  \\    /   O peration     | Version:  v2012                                 |
|   \\  /    A nd           | Website:  www.openfoam.com                      |
|    \\/     M anipulation  |                                                 |
\*---------------------------------------------------------------------------*/
FoamFile
{
    version     2.0;
    format      ascii;
    class       volScalarField;
    location    "0.2";
    object      p;
}
// * * * * * * * * * * * * * * * * * * * * * * * * * * * * * * * * * * * * * //

dimensions      [0 2 -2 0 0 0 0];


internalField   nonuniform List<scalar> 
400
(
-0.0396183
-0.0444962
-0.0501666
-0.0541668
-0.0551299
-0.052486
-0.0462422
-0.036805
-0.02485
-0.011238
0.00304597
0.0169464
0.0293985
0.0394061
0.0461436
0.0490888
0.0481933
0.044078
0.0382356
0.0332624
-0.0347825
-0.0397953
-0.0441813
-0.0467908
-0.0470015
-0.044416
-0.0390145
-0.031091
-0.0211603
-0.00989778
0.00190979
0.0134141
0.0237621
0.0321655
0.0379838
0.0408263
0.0406772
0.0379745
0.0334426
0.0283409
-0.0287906
-0.0356689
-0.0403824
-0.0427095
-0.0427336
-0.0402617
-0.0353293
-0.0282134
-0.0193591
-0.00934069
0.0011702
0.0114436
0.020739
0.0283635
0.0337391
0.0364831
0.0365175
0.0340724
0.0291684
0.0221508
-0.0237841
-0.0331419
-0.038947
-0.0415788
-0.0417008
-0.0393071
-0.0345203
-0.0276532
-0.0191386
-0.00950904
0.000618287
0.0105667
0.0196366
0.027152
0.0325156
0.0352773
0.0352495
0.0324685
0.0263869
0.0167874
-0.0211495
-0.0330047
-0.0400523
-0.0431087
-0.0433248
-0.040858
-0.0359221
-0.0288835
-0.0201884
-0.010356
1.94766e-05
0.0102804
0.0197297
0.0276671
0.033432
0.0364685
0.0364562
0.0332495
0.0258193
0.0135593
-0.0218969
-0.0361488
-0.0443983
-0.0478085
-0.0479602
-0.0451588
-0.0397107
-0.0320457
-0.0226381
-0.0120123
-0.000759873
0.0104576
0.0209194
0.0298698
0.0365517
0.0402697
0.0405459
0.0370477
0.028303
0.0134036
-0.0268917
-0.0434307
-0.0527366
-0.0562882
-0.0560825
-0.0525747
-0.0461694
-0.0373675
-0.0266798
-0.0146447
-0.00186064
0.0109952
0.0231627
0.0338094
0.0420527
0.0470234
0.0480497
0.0445817
0.0346836
0.0171605
-0.0370259
-0.0557431
-0.0658587
-0.0691917
-0.0681902
-0.0634824
-0.0555853
-0.0450774
-0.0325077
-0.0184261
-0.00343441
0.0117769
0.0264066
0.0395351
0.050132
0.0571166
0.059572
0.0566679
0.0459194
0.0257901
-0.0533517
-0.0741181
-0.0846671
-0.0872408
-0.0848281
-0.0782797
-0.0682479
-0.0553951
-0.0403012
-0.0235128
-0.00561643
0.0127036
0.0306199
0.0471307
0.0610444
0.0710302
0.0758591
0.0743192
0.0632197
0.0405543
-0.0772051
-0.0998201
-0.110218
-0.111232
-0.106551
-0.0973283
-0.0843834
-0.0684641
-0.0501631
-0.029993
-0.00848685
0.0137172
0.0358027
0.0567116
0.0750953
0.0893407
0.0978265
0.0988168
0.0881741
0.0631949
-0.110371
-0.134459
-0.143758
-0.142005
-0.133849
-0.120857
-0.104049
-0.0842503
-0.0620285
-0.0378097
-0.0120123
0.0148375
0.042
0.0684188
0.0926226
0.112705
0.126571
0.131777
0.122899
0.0961535
-0.155361
-0.180146
-0.186748
-0.180378
-0.167028
-0.148817
-0.12699
-0.102409
-0.0755473
-0.0466638
-0.0159721
0.0162101
0.0493215
0.0824082
0.113961
0.141816
0.16335
0.175202
0.17021
0.142895
-0.21596
-0.239742
-0.240856
-0.226997
-0.20601
-0.180685
-0.152457
-0.122128
-0.0899587
-0.055917
-0.0198896
0.0181438
0.0579425
0.0988121
0.139365
0.177308
0.209504
0.231495
0.233869
0.208465
-0.298431
-0.317349
-0.307964
-0.282153
-0.250095
-0.215237
-0.179033
-0.142009
-0.104014
-0.0645502
-0.0230197
0.0210952
0.0680566
0.117651
0.168879
0.219596
0.266339
0.303509
0.319035
0.30062
-0.413562
-0.418815
-0.389918
-0.345352
-0.297572
-0.250277
-0.204484
-0.160021
-0.116007
-0.0712448
-0.0244695
0.025511
0.0796715
0.138563
0.201972
0.268419
0.334626
0.394178
0.432517
0.431447
-0.577865
-0.549566
-0.485838
-0.413259
-0.344286
-0.281721
-0.225244
-0.173273
-0.123747
-0.0745123
-0.0234611
0.0314233
0.0920201
0.159951
0.236303
0.321077
0.41216
0.503365
0.579822
0.617306
-0.819185
-0.711126
-0.587824
-0.477029
-0.382169
-0.302891
-0.236193
-0.178068
-0.12477
-0.0729863
-0.0196917
0.038016
0.103016
0.178248
0.266661
0.370823
0.491242
0.62399
0.761773
0.882589
-1.23846
-0.931275
-0.699543
-0.535806
-0.409975
-0.313126
-0.237461
-0.17517
-0.120233
-0.0680372
-0.0146663
0.0436664
0.11085
0.191354
0.290679
0.415507
0.571438
0.761685
1.00729
1.31771
-2.07401
-1.28779
-0.845849
-0.604901
-0.441231
-0.325124
-0.24072
-0.175016
-0.11922
-0.0672636
-0.0143087
0.0440582
0.112733
0.197787
0.307827
0.45554
0.656737
0.935346
1.38689
2.13051
-2.63638
-1.28161
-0.730688
-0.492502
-0.347603
-0.251634
-0.185269
-0.135495
-0.0943068
-0.0564687
-0.0179946
0.0247054
0.0755241
0.139557
0.224607
0.344009
0.520584
0.803239
1.37528
2.60136
)
;

boundaryField
{
    movingWall
    {
        type            fixedValue;
        value           uniform 0;
    }
    fixedWalls
    {
        type            zeroGradient;
    }
    frontAndBack
    {
        type            empty;
    }
}


// ************************************************************************* //
