/*--------------------------------*- C++ -*----------------------------------*\
| =========                 |                                                 |
| \\      /  F ield         | OpenFOAM: The Open Source CFD Toolbox           |
|  \\    /   O peration     | Version:  v2012                                 |
|   \\  /    A nd           | Website:  www.openfoam.com                      |
|    \\/     M anipulation  |                                                 |
\*---------------------------------------------------------------------------*/
FoamFile
{
    version     2.0;
    format      ascii;
    class       surfaceScalarField;
    location    "0.2";
    object      phi;
}
// * * * * * * * * * * * * * * * * * * * * * * * * * * * * * * * * * * * * * //

dimensions      [0 3 -1 0 0 0 0];
oriented        oriented;


internalField   nonuniform List<scalar> 
760
(
1.00661e-08
-1.0066e-08
-2.37023e-08
3.37679e-08
-1.03442e-07
7.97402e-08
-2.14522e-07
1.11081e-07
-3.40363e-07
1.25841e-07
-4.65721e-07
1.25358e-07
-5.77731e-07
1.12011e-07
-6.66235e-07
8.85039e-08
-7.23773e-07
5.7538e-08
-7.4554e-07
2.1767e-08
-7.29428e-07
-1.61126e-08
-6.76181e-07
-5.32473e-08
-5.89636e-07
-8.65452e-08
-4.76969e-07
-1.12667e-07
-3.48841e-07
-1.28129e-07
-2.19248e-07
-1.29593e-07
-1.04814e-07
-1.14434e-07
-2.32043e-08
-8.16095e-08
1.07084e-08
-3.39124e-08
1.07088e-08
-3.21713e-08
2.21058e-08
-1.5921e-07
1.60806e-07
-3.74258e-07
2.94787e-07
-6.50544e-07
3.87367e-07
-9.55181e-07
4.30478e-07
-1.25564e-06
4.25815e-07
-1.52305e-06
3.79422e-07
-1.73383e-06
2.99281e-07
-1.87034e-06
1.94055e-07
-1.92127e-06
7.26901e-08
-1.88183e-06
-5.55463e-08
-1.7542e-06
-1.80882e-07
-1.54782e-06
-2.92926e-07
-1.27971e-06
-3.8078e-07
-9.74292e-07
-4.33543e-07
-6.62481e-07
-4.41404e-07
-3.79355e-07
-3.9756e-07
-1.59903e-07
-3.0106e-07
-3.16005e-08
-1.62214e-07
-2.08915e-08
-8.04522e-08
1.02559e-07
-3.04716e-07
3.8507e-07
-6.4467e-07
6.34741e-07
-1.06065e-06
8.03348e-07
-1.50817e-06
8.77996e-07
-1.94367e-06
8.61321e-07
-2.32831e-06
7.64056e-07
-2.63005e-06
6.0102e-07
-2.82484e-06
3.88846e-07
-2.8972e-06
1.45057e-07
-2.8407e-06
-1.12046e-07
-2.65838e-06
-3.63203e-07
-2.36321e-06
-5.88098e-07
-1.9783e-06
-7.65689e-07
-1.53658e-06
-8.75263e-07
-1.07942e-06
-8.98567e-07
-6.53696e-07
-8.23285e-07
-3.06887e-07
-6.47868e-07
-8.00263e-08
-3.89075e-07
-1.00918e-07
-1.23058e-07
2.25616e-07
-4.38944e-07
7.00957e-07
-8.95446e-07
1.09124e-06
-1.43721e-06
1.34511e-06
-2.00851e-06
1.44929e-06
-2.55715e-06
1.40997e-06
-3.03752e-06
1.24442e-06
-3.41236e-06
9.75858e-07
-3.6538e-06
6.30288e-07
-3.74392e-06
2.35171e-07
-3.67514e-06
-1.80819e-07
-3.45079e-06
-5.8756e-07
-3.08553e-06
-9.53352e-07
-2.60583e-06
-1.24539e-06
-2.04974e-06
-1.43135e-06
-1.4658e-06
-1.4825e-06
-9.10419e-07
-1.37867e-06
-4.43512e-07
-1.11477e-06
-1.22923e-07
-7.09664e-07
-2.2384e-07
-1.60647e-07
3.86263e-07
-5.6153e-07
1.10184e-06
-1.12692e-06
1.65664e-06
-1.7845e-06
2.00269e-06
-2.46698e-06
2.13177e-06
-3.11459e-06
2.05757e-06
-3.67681e-06
1.80664e-06
-4.11333e-06
1.41237e-06
-4.39432e-06
9.11285e-07
-4.50063e-06
3.41481e-07
-4.42391e-06
-2.57543e-07
-4.16707e-06
-8.44401e-07
-3.745e-06
-1.37542e-06
-3.18533e-06
-1.80506e-06
-2.52894e-06
-2.08774e-06
-1.82966e-06
-2.18179e-06
-1.15261e-06
-2.05571e-06
-5.71016e-07
-1.69637e-06
-1.61512e-07
-1.11917e-06
-3.85352e-07
-1.95328e-07
5.81591e-07
-6.76155e-07
1.58267e-06
-1.34391e-06
2.32439e-06
-2.10876e-06
2.76755e-06
-2.89183e-06
2.91484e-06
-3.6266e-06
2.79234e-06
-4.25923e-06
2.43928e-06
-4.74814e-06
1.90128e-06
-5.06319e-06
1.22634e-06
-5.18504e-06
4.63331e-07
-5.1048e-06
-3.37785e-07
-4.82438e-06
-1.12482e-06
-4.35743e-06
-1.84237e-06
-3.73078e-06
-2.4317e-06
-2.98604e-06
-2.83249e-06
-2.18065e-06
-2.98718e-06
-1.38788e-06
-2.84848e-06
-6.94868e-07
-2.38938e-06
-1.98578e-07
-1.61546e-06
-5.8393e-07
-2.29053e-07
8.10644e-07
-7.86705e-07
2.14032e-06
-1.55092e-06
3.0886e-06
-2.41392e-06
3.63055e-06
-3.28564e-06
3.78656e-06
-4.0941e-06
3.6008e-06
-4.78406e-06
3.12923e-06
-5.31474e-06
2.43197e-06
-5.65751e-06
1.56911e-06
-5.794e-06
5.99818e-07
-5.71513e-06
-4.16661e-07
-5.42118e-06
-1.41877e-06
-4.92308e-06
-2.34047e-06
-4.24467e-06
-3.11012e-06
-3.42573e-06
-3.65142e-06
-2.52514e-06
-3.88777e-06
-1.623e-06
-3.75062e-06
-8.20563e-07
-3.19182e-06
-2.36733e-07
-2.19929e-06
-8.20663e-07
-2.63412e-07
1.07406e-06
-8.96107e-07
2.77301e-06
-1.75018e-06
3.94268e-06
-2.69923e-06
4.5796e-06
-3.64295e-06
4.73028e-06
-4.50617e-06
4.46401e-06
-5.23502e-06
3.85809e-06
-5.79234e-06
2.98928e-06
-6.15329e-06
1.93007e-06
-6.30206e-06
7.48585e-07
-6.22994e-06
-4.88784e-07
-5.93507e-06
-1.71363e-06
-5.42396e-06
-2.85158e-06
-4.71477e-06
-3.81932e-06
-3.84211e-06
-4.52408e-06
-2.86284e-06
-4.86704e-06
-1.86129e-06
-4.75218e-06
-9.52113e-07
-4.101e-06
-2.78113e-07
-2.87329e-06
-1.09878e-06
-2.99699e-07
1.37375e-06
-1.00598e-06
3.4793e-06
-1.94053e-06
4.87723e-06
-2.95738e-06
5.59645e-06
-3.94798e-06
5.72088e-06
-4.83755e-06
5.35358e-06
-5.57776e-06
4.59829e-06
-6.13888e-06
3.55041e-06
-6.50298e-06
2.29417e-06
-6.65888e-06
9.04482e-07
-6.59917e-06
-5.48499e-07
-6.31947e-06
-1.99333e-06
-5.82009e-06
-3.35095e-06
-5.11025e-06
-4.52916e-06
-4.21489e-06
-5.41944e-06
-3.18366e-06
-5.89827e-06
-2.10051e-06
-5.83533e-06
-1.0912e-06
-5.11031e-06
-3.24315e-07
-3.64017e-06
-1.42309e-06
-3.3923e-07
1.71298e-06
-1.11671e-06
4.25677e-06
-2.11657e-06
5.87709e-06
-3.17255e-06
6.65243e-06
-4.17163e-06
6.71997e-06
-5.04515e-06
6.2271e-06
-5.75617e-06
5.30931e-06
-6.28748e-06
4.08172e-06
-6.63192e-06
2.63861e-06
-6.78556e-06
1.05812e-06
-6.74362e-06
-5.9044e-07
-6.49915e-06
-2.2378e-06
-6.04457e-06
-3.80553e-06
-5.37654e-06
-5.19718e-06
-4.50466e-06
-6.29132e-06
-3.46404e-06
-6.93889e-06
-2.33073e-06
-6.96864e-06
-1.23647e-06
-6.20456e-06
-3.76478e-07
-4.50017e-06
-1.79957e-06
-3.83829e-07
2.09681e-06
-1.2274e-06
5.10034e-06
-2.26707e-06
6.91676e-06
-3.31711e-06
7.70247e-06
-4.26701e-06
7.66987e-06
-5.06297e-06
7.02305e-06
-5.68737e-06
5.93372e-06
-6.14171e-06
4.53605e-06
-6.43397e-06
2.93088e-06
-6.57037e-06
1.19451e-06
-6.55042e-06
-6.10383e-07
-6.36505e-06
-2.42317e-06
-5.99762e-06
-4.17296e-06
-5.42881e-06
-5.766e-06
-4.64644e-06
-7.07368e-06
-3.66162e-06
-7.92372e-06
-2.53101e-06
-8.09925e-06
-1.38246e-06
-7.35311e-06
-4.3541e-07
-5.44722e-06
-2.23498e-06
-4.36479e-07
2.53329e-06
-1.33513e-06
5.999e-06
-2.37132e-06
7.95295e-06
-3.3452e-06
8.67634e-06
-4.16152e-06
8.4862e-06
-4.79415e-06
7.65568e-06
-5.25471e-06
6.39427e-06
-5.56992e-06
4.85127e-06
-5.767e-06
3.12795e-06
-5.86481e-06
1.29233e-06
-5.86892e-06
-6.06272e-07
-5.7692e-06
-2.5229e-06
-5.53999e-06
-4.40217e-06
-5.14382e-06
-6.16217e-06
-4.54085e-06
-7.67665e-06
-3.70705e-06
-8.75752e-06
-2.66367e-06
-9.14263e-06
-1.51721e-06
-8.49958e-06
-5.01615e-07
-6.46281e-06
-2.73659e-06
-5.01915e-07
3.03521e-06
-1.43173e-06
6.92881e-06
-2.39031e-06
8.91153e-06
-3.18009e-06
9.46612e-06
-3.74329e-06
9.04939e-06
-4.09885e-06
8.01125e-06
-4.2983e-06
6.59372e-06
-4.39884e-06
4.95181e-06
-4.44898e-06
3.17809e-06
-4.48123e-06
1.32459e-06
-4.50837e-06
-5.79138e-07
-4.52105e-06
-2.51021e-06
-4.48669e-06
-4.43654e-06
-4.35046e-06
-6.29839e-06
-4.04175e-06
-7.98537e-06
-3.49098e-06
-9.30828e-06
-2.66379e-06
-9.96982e-06
-1.6171e-06
-9.54626e-06
-5.74864e-07
-7.50505e-06
-3.31146e-06
-5.85827e-07
3.62104e-06
-1.49374e-06
7.83672e-06
-2.24683e-06
9.66463e-06
-2.68984e-06
9.90913e-06
-2.83802e-06
9.19756e-06
-2.77597e-06
7.9492e-06
-2.60303e-06
6.42078e-06
-2.40739e-06
4.75617e-06
-2.25638e-06
3.02708e-06
-2.19391e-06
1.26212e-06
-2.23962e-06
-5.33425e-07
-2.38744e-06
-2.36239e-06
-2.60281e-06
-4.22118e-06
-2.81955e-06
-6.08165e-06
-2.93971e-06
-7.86521e-06
-2.84323e-06
-9.40476e-06
-2.41944e-06
-1.03936e-05
-1.63478e-06
-1.03309e-05
-6.5165e-07
-8.48817e-06
-3.96311e-06
-6.87742e-07
4.30878e-06
-1.45368e-06
8.60266e-06
-1.7814e-06
9.99235e-06
-1.64159e-06
9.76932e-06
-1.17163e-06
8.7276e-06
-5.37868e-07
7.31543e-06
1.1485e-07
5.76806e-06
6.76993e-07
4.19402e-06
1.07256e-06
2.63152e-06
1.25358e-06
1.0811e-06
1.19628e-06
-4.76126e-07
9.00921e-07
-2.06704e-06
3.95822e-07
-3.71608e-06
-2.54641e-07
-5.43119e-06
-9.40074e-07
-7.17977e-06
-1.49889e-06
-8.84594e-06
-1.73328e-06
-1.01592e-05
-1.46991e-06
-1.05943e-05
-7.15648e-07
-9.24243e-06
-4.67875e-06
-7.73784e-07
5.08256e-06
-1.1242e-06
8.95308e-06
-6.59392e-07
9.52754e-06
3.77989e-07
8.73193e-06
1.68404e-06
7.42155e-06
3.01886e-06
5.98062e-06
4.21731e-06
4.56961e-06
5.17424e-06
3.23708e-06
5.82508e-06
1.98068e-06
6.13069e-06
7.75494e-07
6.06889e-06
-4.14324e-07
5.63229e-06
-1.63043e-06
4.83252e-06
-2.9163e-06
3.7118e-06
-4.31047e-06
2.36277e-06
-5.83074e-06
9.54239e-07
-7.43741e-06
-2.48877e-07
-8.95611e-06
-9.00147e-07
-9.94303e-06
-7.08871e-07
-9.43371e-06
-5.38763e-06
-6.89001e-07
5.77156e-06
-1.67159e-08
8.28079e-06
1.79747e-06
7.71335e-06
4.07542e-06
6.45398e-06
6.36732e-06
5.12965e-06
8.42786e-06
3.92008e-06
1.01334e-05
2.86412e-06
1.14266e-05
1.94381e-06
1.22819e-05
1.12537e-06
1.26848e-05
3.72651e-07
1.26219e-05
-3.51418e-07
1.20782e-05
-1.08675e-06
1.10394e-05
-1.87752e-06
9.50264e-06
-2.7737e-06
7.49953e-06
-3.82763e-06
5.13819e-06
-5.07607e-06
2.66804e-06
-6.48596e-06
5.64263e-07
-7.83925e-06
-4.4598e-07
-8.42347e-06
-5.83361e-06
1.83833e-07
5.58773e-06
3.04702e-06
5.41761e-06
6.87922e-06
3.88115e-06
1.05656e-05
2.76759e-06
1.37391e-05
1.95618e-06
1.63132e-05
1.346e-06
1.82991e-05
8.78215e-07
1.9735e-05
5.07919e-07
2.06561e-05
2.04247e-07
2.10829e-05
-5.4196e-08
2.10161e-05
-2.84584e-07
2.04357e-05
-5.06394e-07
1.92996e-05
-7.41393e-07
1.75465e-05
-1.02059e-06
1.51077e-05
-1.3888e-06
1.19409e-05
-1.90929e-06
8.11406e-06
-2.65912e-06
3.99334e-06
-3.71853e-06
6.67323e-07
-5.09746e-06
-5.16628e-06
4.12591e-06
1.46182e-06
1.11335e-05
-1.58998e-06
1.70088e-05
-1.99418e-06
2.14851e-05
-1.70871e-06
2.48263e-05
-1.385e-06
2.7283e-05
-1.11067e-06
2.9053e-05
-8.91824e-07
3.02728e-05
-7.11823e-07
3.10272e-05
-5.50207e-07
3.1362e-05
-3.89e-07
3.12902e-05
-2.1276e-07
3.07915e-05
-7.67287e-09
2.98106e-05
2.39517e-07
2.82469e-05
5.4308e-07
2.59404e-05
9.17694e-07
2.26576e-05
1.37347e-06
1.81064e-05
1.89212e-06
1.20231e-05
2.36476e-06
4.68267e-06
2.24298e-06
-4.83617e-07
2.14348e-05
3.13749e-05
3.59837e-05
3.87342e-05
4.05002e-05
4.16724e-05
4.24623e-05
4.29808e-05
4.32873e-05
4.34114e-05
4.33622e-05
4.31299e-05
4.26824e-05
4.19553e-05
4.08273e-05
3.90645e-05
3.62035e-05
3.1217e-05
2.0812e-05
)
;

boundaryField
{
    movingWall
    {
        type            calculated;
        value           nonuniform List<scalar> 
20
(
-1.9973e-05
-1.15301e-05
-6.60299e-06
-4.45922e-06
-3.151e-06
-2.28284e-06
-1.68169e-06
-1.2304e-06
-8.56668e-07
-5.13112e-07
-1.63563e-07
2.2464e-07
6.87012e-07
1.27017e-06
2.04568e-06
3.13629e-06
4.75312e-06
7.3513e-06
1.2648e-05
2.03284e-05
)
;
    }
    fixedWalls
    {
        type            calculated;
        value           uniform 0;
    }
    frontAndBack
    {
        type            empty;
        value           nonuniform List<scalar> 0();
    }
}


// ************************************************************************* //
