/*--------------------------------*- C++ -*----------------------------------*\
| =========                 |                                                 |
| \\      /  F ield         | OpenFOAM: The Open Source CFD Toolbox           |
|  \\    /   O peration     | Version:  v2012                                 |
|   \\  /    A nd           | Website:  www.openfoam.com                      |
|    \\/     M anipulation  |                                                 |
\*---------------------------------------------------------------------------*/
FoamFile
{
    version     2.0;
    format      ascii;
    class       volVectorField;
    location    "0.2";
    object      U;
}
// * * * * * * * * * * * * * * * * * * * * * * * * * * * * * * * * * * * * * //

dimensions      [0 1 -1 0 0 0 0];


internalField   nonuniform List<vector> 
400
(
(0.000194522 -0.000192162 0)
(4.84433e-05 0.000125264 0)
(-0.0011181 0.000501142 0)
(-0.00308782 0.000757918 0)
(-0.00552155 0.000880399 0)
(-0.0080926 0.000884803 0)
(-0.0105159 0.000793365 0)
(-0.0125596 0.000628431 0)
(-0.0140468 0.000410401 0)
(-0.0148548 0.000158121 0)
(-0.014914 -0.000109786 0)
(-0.0142099 -0.000373541 0)
(-0.0127875 -0.000611166 0)
(-0.0107566 -0.000797993 0)
(-0.00829606 -0.000906975 0)
(-0.00565514 -0.000910396 0)
(-0.00314579 -0.000783991 0)
(-0.00112128 -0.000514188 0)
(6.50614e-05 -0.000123631 0)
(0.000203093 0.000199357 0)
(-0.000100695 -6.9355e-05 0)
(-0.00147124 0.0014927 0)
(-0.00496895 0.00311965 0)
(-0.0100402 0.00425369 0)
(-0.0160064 0.00479364 0)
(-0.0222021 0.00477034 0)
(-0.0280051 0.0042631 0)
(-0.0328847 0.00336928 0)
(-0.0364261 0.00219003 0)
(-0.0383384 0.000827027 0)
(-0.0384592 -0.000615534 0)
(-0.0367608 -0.00202758 0)
(-0.0333579 -0.00329083 0)
(-0.0285148 -0.00427917 0)
(-0.0226489 -0.00486358 0)
(-0.0163217 -0.00492411 0)
(-0.0102049 -0.00437257 0)
(-0.00501457 -0.00318823 0)
(-0.00146016 -0.00150131 0)
(-8.97458e-05 8.94784e-05 0)
(-0.000479707 0.00105941 0)
(-0.00321209 0.00500352 0)
(-0.00899041 0.00868291 0)
(-0.0167912 0.0112195 0)
(-0.0256469 0.0123864 0)
(-0.0346776 0.0122175 0)
(-0.0430521 0.0108722 0)
(-0.0500524 0.00856952 0)
(-0.0551135 0.00555294 0)
(-0.057838 0.00207697 0)
(-0.0580046 -0.00159327 0)
(-0.0555773 -0.00517846 0)
(-0.0507148 -0.00838294 0)
(-0.0437777 -0.010899 0)
(-0.0353306 -0.0124223 0)
(-0.0261279 -0.0126832 0)
(-0.0170633 -0.0115008 0)
(-0.00908582 -0.00886021 0)
(-0.00321123 -0.00504805 0)
(-0.000467257 -0.00102862 0)
(-0.00080451 0.00311214 0)
(-0.00479985 0.0104487 0)
(-0.0127342 0.0167178 0)
(-0.0230422 0.0208963 0)
(-0.0344467 0.0226973 0)
(-0.045886 0.022192 0)
(-0.0563807 0.0196485 0)
(-0.0650931 0.0154384 0)
(-0.071368 0.00998149 0)
(-0.0747455 0.00372237 0)
(-0.0749688 -0.00287392 0)
(-0.0719932 -0.00931822 0)
(-0.0659961 -0.0150957 0)
(-0.0573879 -0.0196745 0)
(-0.0468172 -0.0225332 0)
(-0.0351607 -0.0232132 0)
(-0.0234737 -0.0214046 0)
(-0.0129089 -0.0170599 0)
(-0.00481803 -0.01056 0)
(-0.00079071 -0.00307342 0)
(-0.00108065 0.00596299 0)
(-0.00622812 0.0176453 0)
(-0.016182 0.0269757 0)
(-0.028823 0.0329401 0)
(-0.0425473 0.0352965 0)
(-0.0561188 0.034222 0)
(-0.068442 0.0301394 0)
(-0.0786027 0.0236048 0)
(-0.0858979 0.0152381 0)
(-0.0898379 0.00569265 0)
(-0.0901463 -0.00435047 0)
(-0.0867664 -0.0141763 0)
(-0.0798725 -0.0230322 0)
(-0.0698861 -0.0301387 0)
(-0.0574924 -0.0347249 0)
(-0.0436453 -0.0361002 0)
(-0.0295318 -0.0337678 0)
(-0.0165085 -0.0275706 0)
(-0.00629426 -0.0178789 0)
(-0.00107036 -0.00592703 0)
(-0.00133133 0.00953078 0)
(-0.00755669 0.0264818 0)
(-0.0194168 0.0393368 0)
(-0.0342407 0.0472057 0)
(-0.0500906 0.0500041 0)
(-0.0655635 0.0481038 0)
(-0.0794735 0.042144 0)
(-0.090866 0.0329043 0)
(-0.0990267 0.0212253 0)
(-0.103464 0.00797702 0)
(-0.103896 -0.00594246 0)
(-0.100251 -0.0195933 0)
(-0.0926772 -0.031982 0)
(-0.0815726 -0.0420667 0)
(-0.0676153 -0.0487958 0)
(-0.0517963 -0.0511928 0)
(-0.0354088 -0.0484939 0)
(-0.0200143 -0.0403292 0)
(-0.00772368 -0.0269407 0)
(-0.00133549 -0.00952907 0)
(-0.00157774 0.0137774 0)
(-0.00884803 0.0368807 0)
(-0.0225278 0.0536883 0)
(-0.0393842 0.0635363 0)
(-0.0571444 0.0666208 0)
(-0.0742559 0.0636135 0)
(-0.0894766 0.0554449 0)
(-0.101854 0.0431611 0)
(-0.110702 0.0278406 0)
(-0.115561 0.010567 0)
(-0.116157 -0.00755945 0)
(-0.112401 -0.0253924 0)
(-0.104395 -0.0417097 0)
(-0.0924735 -0.0552045 0)
(-0.0772589 -0.0645159 0)
(-0.0597283 -0.0683186 0)
(-0.0412431 -0.0654832 0)
(-0.0235561 -0.0552971 0)
(-0.00919177 -0.0377375 0)
(-0.00161357 -0.0138761 0)
(-0.00183779 0.0187009 0)
(-0.010154 0.0487966 0)
(-0.0255766 0.0699122 0)
(-0.0442776 0.0817309 0)
(-0.0636522 0.0848756 0)
(-0.0820337 0.0804434 0)
(-0.0981769 0.0697426 0)
(-0.11119 0.0541312 0)
(-0.12047 0.0349352 0)
(-0.125624 0.0134355 0)
(-0.126415 -0.00909852 0)
(-0.122733 -0.0313521 0)
(-0.114613 -0.0519072 0)
(-0.102281 -0.0692055 0)
(-0.0862418 -0.0815569 0)
(-0.0673855 -0.0872221 0)
(-0.0470763 -0.0845884 0)
(-0.02722 -0.072439 0)
(-0.0107685 -0.0503096 0)
(-0.00192851 -0.0190135 0)
(-0.00212836 0.0243281 0)
(-0.0115153 0.062203 0)
(-0.0285839 0.0878608 0)
(-0.0488507 0.101503 0)
(-0.0693912 0.10437 0)
(-0.0884871 0.0981397 0)
(-0.104973 0.084595 0)
(-0.118101 0.0654492 0)
(-0.12742 0.0422739 0)
(-0.132662 0.0165134 0)
(-0.13365 -0.0104478 0)
(-0.130265 -0.0371896 0)
(-0.122451 -0.0621558 0)
(-0.110278 -0.0835743 0)
(-0.094049 -0.0994253 0)
(-0.0744699 -0.107495 0)
(-0.0528008 -0.105556 0)
(-0.0310202 -0.0916809 0)
(-0.0125023 -0.0647213 0)
(-0.00230193 -0.0250246 0)
(-0.00247026 0.0307113 0)
(-0.0129685 0.0770695 0)
(-0.0315228 0.107306 0)
(-0.0529093 0.122407 0)
(-0.0739207 0.124496 0)
(-0.0928935 0.116018 0)
(-0.108866 0.0993404 0)
(-0.121344 0.076565 0)
(-0.130123 0.0494888 0)
(-0.13512 0.0196623 0)
(-0.136262 -0.0114942 0)
(-0.133432 -0.042545 0)
(-0.126468 -0.0718851 0)
(-0.11523 -0.0976007 0)
(-0.0997307 -0.117373 0)
(-0.0803543 -0.128476 0)
(-0.0580988 -0.127926 0)
(-0.0348719 -0.112832 0)
(-0.0144181 -0.0810178 0)
(-0.00275657 -0.032021 0)
(-0.00289641 0.0379336 0)
(-0.0145563 0.0933334 0)
(-0.0343062 0.127869 0)
(-0.0560862 0.143741 0)
(-0.0765003 0.144322 0)
(-0.0941163 0.133063 0)
(-0.108351 0.113016 0)
(-0.119109 0.0866821 0)
(-0.126533 0.0560338 0)
(-0.1308 0.0226438 0)
(-0.131982 -0.0121372 0)
(-0.129988 -0.0469763 0)
(-0.124548 -0.0803429 0)
(-0.115265 -0.110296 0)
(-0.101768 -0.134301 0)
(-0.083959 -0.149123 0)
(-0.0623531 -0.150898 0)
(-0.0385484 -0.135475 0)
(-0.0165137 -0.0991649 0)
(-0.00332129 -0.0401349 0)
(-0.00346454 0.0461282 0)
(-0.0163362 0.110859 0)
(-0.0367437 0.148906 0)
(-0.0577348 0.164398 0)
(-0.0759407 0.162468 0)
(-0.0904425 0.147826 0)
(-0.10127 0.124286 0)
(-0.108889 0.0947093 0)
(-0.113892 0.0611536 0)
(-0.116774 0.0250969 0)
(-0.117798 -0.0123079 0)
(-0.116924 -0.04997 0)
(-0.113785 -0.0865865 0)
(-0.10772 -0.120352 0)
(-0.0978972 -0.148663 0)
(-0.0835727 -0.167866 0)
(-0.0644994 -0.173155 0)
(-0.0416001 -0.1588 0)
(-0.0187459 -0.118959 0)
(-0.00403797 -0.0495165 0)
(-0.00427434 0.0555166 0)
(-0.0183687 0.129357 0)
(-0.0384201 0.16933 0)
(-0.0567023 0.182673 0)
(-0.070327 0.176936 0)
(-0.0793147 0.158325 0)
(-0.0845893 0.131397 0)
(-0.087326 0.0992539 0)
(-0.0886296 0.0638864 0)
(-0.0893365 0.0265327 0)
(-0.0899141 -0.0119895 0)
(-0.0904056 -0.0509743 0)
(-0.0903931 -0.0895125 0)
(-0.0889875 -0.126136 0)
(-0.0848876 -0.158406 0)
(-0.0765862 -0.182461 0)
(-0.0627745 -0.192631 0)
(-0.0431891 -0.181362 0)
(-0.0209854 -0.139876 0)
(-0.0049675 -0.0603348 0)
(-0.00547677 0.0664309 0)
(-0.0206276 0.148161 0)
(-0.0383808 0.187247 0)
(-0.0508569 0.195941 0)
(-0.0565214 0.184932 0)
(-0.0569084 0.161988 0)
(-0.0540975 0.132212 0)
(-0.050033 0.0986914 0)
(-0.0462936 0.0631305 0)
(-0.043999 0.0263685 0)
(-0.0437897 -0.0112318 0)
(-0.0458115 -0.049462 0)
(-0.0496729 -0.0879495 0)
(-0.0543769 -0.125777 0)
(-0.0582711 -0.160975 0)
(-0.059101 -0.189854 0)
(-0.0542784 -0.20621 0)
(-0.0417456 -0.200672 0)
(-0.0228779 -0.160751 0)
(-0.00617813 -0.0727276 0)
(-0.00721631 0.0792357 0)
(-0.0226468 0.165647 0)
(-0.0343485 0.199283 0)
(-0.0361303 0.200216 0)
(-0.0293021 0.18271 0)
(-0.0174995 0.155725 0)
(-0.00402591 0.124396 0)
(0.00856483 0.0913746 0)
(0.0184403 0.057816 0)
(0.024383 0.0240232 0)
(0.0256855 -0.0101538 0)
(0.0221046 -0.0450356 0)
(0.0138978 -0.0808496 0)
(0.00194847 -0.117389 0)
(-0.0120418 -0.153487 0)
(-0.0253565 -0.186168 0)
(-0.0341986 -0.209397 0)
(-0.0342242 -0.212556 0)
(-0.0234377 -0.17912 0)
(-0.00765376 -0.0866143 0)
(-0.00929413 0.0945064 0)
(-0.0224137 0.178555 0)
(-0.0209007 0.199917 0)
(-0.0046992 0.190004 0)
(0.0199936 0.165889 0)
(0.0473482 0.136475 0)
(0.0733072 0.106006 0)
(0.0952562 0.0761554 0)
(0.111579 0.0472905 0)
(0.121293 0.0191355 0)
(0.123809 -0.00891015 0)
(0.118829 -0.0375948 0)
(0.106361 -0.0676631 0)
(0.0868717 -0.0996352 0)
(0.0616003 -0.133378 0)
(0.0330424 -0.167248 0)
(0.00551348 -0.196491 0)
(-0.01455 -0.210773 0)
(-0.0199495 -0.190629 0)
(-0.00891755 -0.101755 0)
(-0.00977157 0.113831 0)
(-0.0133472 0.181304 0)
(0.0142203 0.181414 0)
(0.0578927 0.15922 0)
(0.105102 0.130895 0)
(0.149403 0.102708 0)
(0.187461 0.0767863 0)
(0.217639 0.0533758 0)
(0.239219 0.032009 0)
(0.251869 0.0119698 0)
(0.255341 -0.00756882 0)
(0.249354 -0.0275211 0)
(0.23359 -0.048876 0)
(0.207802 -0.0726526 0)
(0.172143 -0.0997032 0)
(0.127806 -0.130114 0)
(0.0779674 -0.161727 0)
(0.0292097 -0.1873 0)
(-0.00527431 -0.188526 0)
(-0.00765652 -0.118262 0)
(0.00111281 0.128887 0)
(0.0243957 0.15478 0)
(0.0970188 0.128673 0)
(0.176271 0.0998959 0)
(0.245796 0.0751364 0)
(0.30328 0.0548882 0)
(0.348758 0.0385074 0)
(0.382829 0.025028 0)
(0.406282 0.0135725 0)
(0.419717 0.00340925 0)
(0.423364 -0.00611888 0)
(0.417037 -0.0156795 0)
(0.400113 -0.0260505 0)
(0.371528 -0.0382029 0)
(0.329915 -0.0533687 0)
(0.274042 -0.0729547 0)
(0.203393 -0.0979612 0)
(0.119855 -0.12745 0)
(0.0392889 -0.152811 0)
(0.00569548 -0.125429 0)
(0.0699973 0.0606658 0)
(0.153723 0.0312735 0)
(0.282685 0.00833757 0)
(0.389947 -0.00102258 0)
(0.467602 -0.00480968 0)
(0.52446 -0.00643408 0)
(0.566047 -0.00712276 0)
(0.595525 -0.00730181 0)
(0.615006 -0.00707377 0)
(0.62578 -0.00642312 0)
(0.628425 -0.00530349 0)
(0.622877 -0.00367594 0)
(0.608403 -0.00155169 0)
(0.583482 0.000964274 0)
(0.545601 0.00358523 0)
(0.491027 0.00563115 0)
(0.413783 0.00552787 0)
(0.304509 -0.000302419 0)
(0.168983 -0.0188927 0)
(0.0722285 -0.0458471 0)
(0.397754 -0.210808 0)
(0.554081 -0.189745 0)
(0.676749 -0.136326 0)
(0.751716 -0.0984559 0)
(0.795449 -0.0722495 0)
(0.823598 -0.0537651 0)
(0.842649 -0.0403871 0)
(0.855442 -0.030113 0)
(0.86353 -0.0215074 0)
(0.867763 -0.0135396 0)
(0.868514 -0.00539909 0)
(0.86578 0.00364168 0)
(0.859162 0.0143544 0)
(0.847744 0.0276955 0)
(0.8298 0.0450268 0)
(0.802147 0.0684271 0)
(0.757973 0.101019 0)
(0.680929 0.147736 0)
(0.549245 0.212825 0)
(0.36767 0.232641 0)
)
;

boundaryField
{
    movingWall
    {
        type            fixedValue;
        value           uniform (1 0 0);
    }
    fixedWalls
    {
        type            noSlip;
    }
    frontAndBack
    {
        type            empty;
    }
}


// ************************************************************************* //
