/*--------------------------------*- C++ -*----------------------------------*\
| =========                 |                                                 |
| \\      /  F ield         | OpenFOAM: The Open Source CFD Toolbox           |
|  \\    /   O peration     | Version:  v2012                                 |
|   \\  /    A nd           | Website:  www.openfoam.com                      |
|    \\/     M anipulation  |                                                 |
\*---------------------------------------------------------------------------*/
FoamFile
{
    version     2.0;
    format      ascii;
    class       volScalarField;
    location    "0.3";
    object      p;
}
// * * * * * * * * * * * * * * * * * * * * * * * * * * * * * * * * * * * * * //

dimensions      [0 2 -2 0 0 0 0];


internalField   nonuniform List<scalar> 
400
(
-0.0396135
-0.0444934
-0.0501665
-0.0541692
-0.0551343
-0.0524916
-0.0462481
-0.0368102
-0.0248537
-0.0112395
0.00304672
0.0169493
0.0294031
0.0394117
0.046149
0.0490928
0.048195
0.0440768
0.0382319
0.033257
-0.0347756
-0.0397906
-0.044179
-0.0467905
-0.0470028
-0.0444183
-0.0390174
-0.0310938
-0.0211624
-0.00989877
0.00191005
0.0134155
0.0237644
0.0321681
0.0379861
0.0408273
0.0406761
0.0379708
0.0334366
0.0283332
-0.0287805
-0.035662
-0.0403782
-0.0427073
-0.042733
-0.0402621
-0.0353304
-0.0282148
-0.0193603
-0.00934142
0.00117009
0.011444
0.0207397
0.0283641
0.0337392
0.036482
0.0365146
0.034067
0.0291603
0.0221397
-0.023771
-0.0331331
-0.0389413
-0.0415753
-0.0416991
-0.0393066
-0.0345206
-0.0276539
-0.0191395
-0.00950989
0.000617688
0.0105663
0.0196361
0.0271512
0.0325142
0.0352748
0.0352454
0.0324619
0.026377
0.0167731
-0.0211346
-0.0329949
-0.0400457
-0.0431045
-0.0433225
-0.0408571
-0.0359221
-0.0288843
-0.0201896
-0.0103574
1.8097e-05
0.0102791
0.0197283
0.0276652
0.0334294
0.0364649
0.0364511
0.0332421
0.0258084
0.013543
-0.0218821
-0.0361393
-0.044392
-0.0478044
-0.047958
-0.0451581
-0.0397112
-0.032047
-0.02264
-0.0120146
-0.000762313
0.0104552
0.020917
0.0298672
0.0365485
0.0402655
0.0405403
0.0370401
0.028292
0.0133869
-0.0268789
-0.043423
-0.0527318
-0.0562854
-0.0560813
-0.052575
-0.0461709
-0.0373699
-0.0266829
-0.0146482
-0.00186436
0.0109915
0.0231592
0.033806
0.0420491
0.0470192
0.0480443
0.0445746
0.0346734
0.017145
-0.0370171
-0.0557384
-0.0658564
-0.069191
-0.0681908
-0.0634843
-0.0555884
-0.0450815
-0.0325124
-0.0184311
-0.00343953
0.0117719
0.026402
0.0395311
0.0501283
0.0571128
0.0595675
0.0566622
0.0459112
0.0257775
-0.0533486
-0.0741176
-0.0846681
-0.0872429
-0.0848312
-0.0782838
-0.068253
-0.055401
-0.0403077
-0.0235195
-0.00562302
0.0126975
0.0306145
0.0471262
0.0610407
0.0710271
0.075856
0.0743156
0.0632146
0.0405461
-0.0772089
-0.0998244
-0.110223
-0.111237
-0.106557
-0.0973348
-0.0843907
-0.0684721
-0.0501716
-0.0300015
-0.00849488
0.01371
0.0357965
0.0567068
0.0750919
0.0893386
0.0978253
0.0988159
0.0881729
0.0631923
-0.110382
-0.134468
-0.143767
-0.142014
-0.133858
-0.120866
-0.104059
-0.0842602
-0.0620387
-0.0378197
-0.0120216
0.0148294
0.0419935
0.0684142
0.0926199
0.112704
0.126572
0.13178
0.122902
0.0961575
-0.155378
-0.18016
-0.186761
-0.180389
-0.167039
-0.148828
-0.127001
-0.10242
-0.0755587
-0.0466748
-0.0159822
0.0162016
0.049315
0.0824042
0.113959
0.141817
0.163353
0.175208
0.170219
0.142905
-0.215983
-0.23976
-0.240871
-0.227011
-0.206022
-0.180697
-0.152469
-0.12214
-0.0899706
-0.0559284
-0.0198998
0.0181354
0.0579366
0.0988091
0.139365
0.177311
0.20951
0.231505
0.233882
0.208482
-0.298457
-0.317369
-0.307981
-0.282168
-0.250108
-0.215249
-0.179046
-0.142021
-0.104026
-0.0645612
-0.0230293
0.0210876
0.0680519
0.11765
0.168882
0.219602
0.266349
0.303522
0.319053
0.300643
-0.413589
-0.418836
-0.389935
-0.345367
-0.297585
-0.250289
-0.204495
-0.160033
-0.116018
-0.0712549
-0.0244781
0.0255048
0.0796684
0.138564
0.201977
0.268428
0.334639
0.394194
0.432538
0.431475
-0.577891
-0.549586
-0.485854
-0.413272
-0.344297
-0.281731
-0.225254
-0.173283
-0.123757
-0.0745213
-0.0234684
0.0314186
0.0920188
0.159954
0.23631
0.321088
0.412176
0.503384
0.579846
0.617337
-0.819208
-0.711144
-0.587838
-0.47704
-0.382179
-0.302901
-0.236202
-0.178076
-0.124778
-0.0729939
-0.0196976
0.0380127
0.103016
0.178252
0.26667
0.370836
0.49126
0.624011
0.761798
0.882621
-1.23848
-0.931291
-0.699556
-0.535816
-0.409984
-0.313134
-0.237469
-0.175178
-0.12024
-0.0680435
-0.0146709
0.0436644
0.110852
0.19136
0.290689
0.415521
0.571457
0.761707
1.00732
1.31774
-2.07403
-1.28781
-0.845862
-0.604912
-0.44124
-0.325132
-0.240728
-0.175023
-0.119227
-0.0672695
-0.0143129
0.0440566
0.112735
0.197793
0.307837
0.455555
0.656757
0.935369
1.38691
2.13053
-2.63639
-1.28162
-0.730699
-0.492511
-0.34761
-0.25164
-0.185275
-0.135501
-0.0943119
-0.0564734
-0.0179985
0.024703
0.0755242
0.13956
0.224614
0.34402
0.520599
0.803257
1.3753
2.60138
)
;

boundaryField
{
    movingWall
    {
        type            fixedValue;
        value           uniform 0;
    }
    fixedWalls
    {
        type            zeroGradient;
    }
    frontAndBack
    {
        type            empty;
    }
}


// ************************************************************************* //
