/*--------------------------------*- C++ -*----------------------------------*\
| =========                 |                                                 |
| \\      /  F ield         | OpenFOAM: The Open Source CFD Toolbox           |
|  \\    /   O peration     | Version:  v2012                                 |
|   \\  /    A nd           | Website:  www.openfoam.com                      |
|    \\/     M anipulation  |                                                 |
\*---------------------------------------------------------------------------*/
FoamFile
{
    version     2.0;
    format      ascii;
    class       surfaceScalarField;
    location    "0.3";
    object      phi;
}
// * * * * * * * * * * * * * * * * * * * * * * * * * * * * * * * * * * * * * //

dimensions      [0 3 -1 0 0 0 0];
oriented        oriented;


internalField   nonuniform List<scalar> 
760
(
1.00752e-08
-1.00753e-08
-2.36995e-08
3.37726e-08
-1.03463e-07
7.97629e-08
-2.14578e-07
1.11116e-07
-3.4046e-07
1.25883e-07
-4.6586e-07
1.254e-07
-5.77911e-07
1.12049e-07
-6.66446e-07
8.85346e-08
-7.24005e-07
5.75587e-08
-7.45781e-07
2.17755e-08
-7.29663e-07
-1.61172e-08
-6.76397e-07
-5.32648e-08
-5.89822e-07
-8.65743e-08
-4.77116e-07
-1.12705e-07
-3.48942e-07
-1.28173e-07
-2.19305e-07
-1.29637e-07
-1.04836e-07
-1.14471e-07
-2.3203e-08
-8.16322e-08
1.07157e-08
-3.39162e-08
1.07188e-08
-3.21781e-08
2.21047e-08
-1.59261e-07
1.60854e-07
-3.74387e-07
2.94887e-07
-6.50775e-07
3.87505e-07
-9.55526e-07
4.30635e-07
-1.2561e-06
4.25972e-07
-1.52361e-06
3.79564e-07
-1.73447e-06
2.99394e-07
-1.87104e-06
1.9413e-07
-1.92198e-06
7.27189e-08
-1.88254e-06
-5.55665e-08
-1.75485e-06
-1.8095e-07
-1.54839e-06
-2.93036e-07
-1.28018e-06
-3.80922e-07
-9.74644e-07
-4.33703e-07
-6.62715e-07
-4.41566e-07
-3.79484e-07
-3.97704e-07
-1.59956e-07
-3.01165e-07
-3.16104e-08
-1.62264e-07
-2.08894e-08
-8.04846e-08
1.02591e-07
-3.0484e-07
3.85209e-07
-6.44931e-07
6.34976e-07
-1.06108e-06
8.03651e-07
-1.50878e-06
8.78332e-07
-1.94446e-06
8.61656e-07
-2.32925e-06
7.64355e-07
-2.63111e-06
6.01258e-07
-2.82598e-06
3.89001e-07
-2.89838e-06
1.45115e-07
-2.84185e-06
-1.12091e-07
-2.65946e-06
-3.63347e-07
-2.36416e-06
-5.8833e-07
-1.9791e-06
-7.65988e-07
-1.5372e-06
-8.75602e-07
-1.07985e-06
-8.98911e-07
-6.53956e-07
-8.23598e-07
-3.0701e-07
-6.48111e-07
-8.00598e-08
-3.89217e-07
-1.00949e-07
-1.23114e-07
2.25705e-07
-4.39135e-07
7.01231e-07
-8.95825e-07
1.09167e-06
-1.43781e-06
1.34564e-06
-2.00934e-06
1.44986e-06
-2.55821e-06
1.41052e-06
-3.03877e-06
1.24492e-06
-3.41376e-06
9.76249e-07
-3.6553e-06
6.30542e-07
-3.74545e-06
2.35265e-07
-3.67664e-06
-1.80894e-07
-3.45219e-06
-5.878e-07
-3.08678e-06
-9.53737e-07
-2.60688e-06
-1.24589e-06
-2.05057e-06
-1.43192e-06
-1.4664e-06
-1.48308e-06
-9.10794e-07
-1.3792e-06
-4.43698e-07
-1.1152e-06
-1.22977e-07
-7.09939e-07
-2.23927e-07
-1.60719e-07
3.86424e-07
-5.61766e-07
1.10228e-06
-1.12738e-06
1.65728e-06
-1.78521e-06
2.00347e-06
-2.46795e-06
2.1326e-06
-3.1158e-06
2.05838e-06
-3.67824e-06
1.80735e-06
-4.11492e-06
1.41293e-06
-4.39603e-06
9.11645e-07
-4.50237e-06
3.41613e-07
-4.42561e-06
-2.57653e-07
-4.16867e-06
-8.44745e-07
-3.74643e-06
-1.37597e-06
-3.18655e-06
-1.80577e-06
-2.52991e-06
-2.08855e-06
-1.83036e-06
-2.18263e-06
-1.15306e-06
-2.0565e-06
-5.71246e-07
-1.69702e-06
-1.6158e-07
-1.1196e-06
-3.85508e-07
-1.95405e-07
5.81828e-07
-6.76406e-07
1.58328e-06
-1.34439e-06
2.32526e-06
-2.10949e-06
2.76858e-06
-2.89283e-06
2.91593e-06
-3.62784e-06
2.79339e-06
-4.26069e-06
2.4402e-06
-4.74976e-06
1.902e-06
-5.06493e-06
1.22681e-06
-5.18682e-06
4.63501e-07
-5.10654e-06
-3.37928e-07
-4.82602e-06
-1.12527e-06
-4.3589e-06
-1.84309e-06
-3.73204e-06
-2.43263e-06
-2.98704e-06
-2.83355e-06
-2.18138e-06
-2.98829e-06
-1.38835e-06
-2.84953e-06
-6.95114e-07
-2.39026e-06
-1.98651e-07
-1.61606e-06
-5.8416e-07
-2.29125e-07
8.10953e-07
-7.86937e-07
2.14109e-06
-1.55136e-06
3.08968e-06
-2.4146e-06
3.63182e-06
-3.28655e-06
3.78788e-06
-4.09524e-06
3.60207e-06
-4.78539e-06
3.13036e-06
-5.31623e-06
2.43284e-06
-5.6591e-06
1.56968e-06
-5.79563e-06
6.00025e-07
-5.71672e-06
-4.16832e-07
-5.42269e-06
-1.41931e-06
-4.92444e-06
-2.34134e-06
-4.24583e-06
-3.11124e-06
-3.42666e-06
-3.65272e-06
-2.52583e-06
-3.88912e-06
-1.62345e-06
-3.75191e-06
-8.20797e-07
-3.19291e-06
-2.36803e-07
-2.20006e-06
-8.20963e-07
-2.63469e-07
1.07442e-06
-8.96291e-07
2.77391e-06
-1.75053e-06
3.94392e-06
-2.69977e-06
4.58105e-06
-3.64368e-06
4.7318e-06
-4.50708e-06
4.46547e-06
-5.23609e-06
3.85937e-06
-5.79353e-06
2.99029e-06
-6.15457e-06
1.93072e-06
-6.30337e-06
7.48826e-07
-6.23123e-06
-4.88972e-07
-5.93629e-06
-1.71424e-06
-5.42507e-06
-2.85256e-06
-4.71572e-06
-3.82059e-06
-3.84289e-06
-4.52555e-06
-2.86341e-06
-4.86859e-06
-1.86166e-06
-4.75366e-06
-9.5231e-07
-4.10227e-06
-2.78173e-07
-2.87419e-06
-1.09914e-06
-2.99734e-07
1.37416e-06
-1.0061e-06
3.48027e-06
-1.94075e-06
4.87858e-06
-2.95772e-06
5.59802e-06
-3.94844e-06
5.72252e-06
-4.83813e-06
5.35516e-06
-5.57844e-06
4.59968e-06
-6.13965e-06
3.5515e-06
-6.50382e-06
2.29488e-06
-6.65974e-06
9.04753e-07
-6.60002e-06
-5.48691e-07
-6.32029e-06
-1.99398e-06
-5.82084e-06
-3.352e-06
-5.1109e-06
-4.53053e-06
-4.21543e-06
-5.42103e-06
-3.18406e-06
-5.89995e-06
-2.10077e-06
-5.83695e-06
-1.09134e-06
-5.1117e-06
-3.24357e-07
-3.64117e-06
-1.42349e-06
-3.39239e-07
1.7134e-06
-1.11673e-06
4.25777e-06
-2.11663e-06
5.87847e-06
-3.17265e-06
6.65404e-06
-4.17177e-06
6.72165e-06
-5.04533e-06
6.22872e-06
-5.7564e-06
5.31075e-06
-6.28775e-06
4.08285e-06
-6.63222e-06
2.63936e-06
-6.78588e-06
1.05841e-06
-6.74395e-06
-5.90622e-07
-6.49948e-06
-2.23845e-06
-6.04488e-06
-3.8066e-06
-5.37682e-06
-5.19859e-06
-4.50489e-06
-6.29296e-06
-3.46422e-06
-6.94062e-06
-2.33085e-06
-6.97032e-06
-1.23654e-06
-6.20601e-06
-3.765e-07
-4.50121e-06
-1.79999e-06
-3.83809e-07
2.09721e-06
-1.22734e-06
5.1013e-06
-2.26696e-06
6.91809e-06
-3.31695e-06
7.70402e-06
-4.26681e-06
7.67151e-06
-5.06273e-06
7.02464e-06
-5.68712e-06
5.93513e-06
-6.14144e-06
4.53718e-06
-6.43371e-06
2.93162e-06
-6.57012e-06
1.19482e-06
-6.55019e-06
-6.10541e-07
-6.36485e-06
-2.42379e-06
-5.99746e-06
-4.17399e-06
-5.42868e-06
-5.76737e-06
-4.64636e-06
-7.07528e-06
-3.66156e-06
-7.92542e-06
-2.53098e-06
-8.1009e-06
-1.38245e-06
-7.35455e-06
-4.35407e-07
-5.44825e-06
-2.2354e-06
-4.36433e-07
2.53364e-06
-1.33499e-06
5.99985e-06
-2.37105e-06
7.95416e-06
-3.3448e-06
8.67777e-06
-4.161e-06
8.48772e-06
-4.79352e-06
7.65716e-06
-5.25399e-06
6.3956e-06
-5.56914e-06
4.85233e-06
-5.76619e-06
3.12867e-06
-5.864e-06
1.29264e-06
-5.86815e-06
-6.06398e-07
-5.76848e-06
-2.52345e-06
-5.53936e-06
-4.40312e-06
-5.14329e-06
-6.16343e-06
-4.54043e-06
-7.67814e-06
-3.70675e-06
-8.7591e-06
-2.66348e-06
-9.14417e-06
-1.51711e-06
-8.50092e-06
-5.01588e-07
-6.46378e-06
-2.73699e-06
-5.01848e-07
3.03549e-06
-1.43152e-06
6.92952e-06
-2.38991e-06
8.91256e-06
-3.17949e-06
9.46736e-06
-3.74249e-06
9.05072e-06
-4.09789e-06
8.01256e-06
-4.29719e-06
6.5949e-06
-4.39762e-06
4.95277e-06
-4.4477e-06
3.17874e-06
-4.47994e-06
1.32488e-06
-4.50711e-06
-5.79229e-07
-4.51987e-06
-2.51068e-06
-4.48563e-06
-4.43736e-06
-4.34957e-06
-6.2995e-06
-4.04103e-06
-7.98667e-06
-3.49046e-06
-9.30967e-06
-2.66345e-06
-9.97118e-06
-1.61693e-06
-9.54744e-06
-5.74814e-07
-7.50589e-06
-3.3118e-06
-5.85746e-07
3.62123e-06
-1.49348e-06
7.83726e-06
-2.24635e-06
9.66543e-06
-2.68911e-06
9.91012e-06
-2.83704e-06
9.19865e-06
-2.77477e-06
7.95028e-06
-2.60164e-06
6.42177e-06
-2.40585e-06
4.75698e-06
-2.25475e-06
3.02765e-06
-2.19225e-06
1.26238e-06
-2.23799e-06
-5.33485e-07
-2.38591e-06
-2.36277e-06
-2.60142e-06
-4.22185e-06
-2.81837e-06
-6.08256e-06
-2.93876e-06
-7.86628e-06
-2.84253e-06
-9.4059e-06
-2.41898e-06
-1.03947e-05
-1.63454e-06
-1.03319e-05
-6.5158e-07
-8.48886e-06
-3.96338e-06
-6.87659e-07
4.30889e-06
-1.45342e-06
8.60301e-06
-1.7809e-06
9.99291e-06
-1.64081e-06
9.77004e-06
-1.17058e-06
8.72842e-06
-5.36569e-07
7.31627e-06
1.16371e-07
5.76883e-06
6.78689e-07
4.19466e-06
1.07437e-06
2.63196e-06
1.25544e-06
1.08132e-06
1.19812e-06
-4.76163e-07
9.02668e-07
-2.06732e-06
3.97408e-07
-3.71659e-06
-2.53273e-07
-5.43188e-06
-9.38967e-07
-7.18058e-06
-1.49807e-06
-8.84679e-06
-1.73274e-06
-1.01601e-05
-1.46963e-06
-1.0595e-05
-7.15563e-07
-9.24292e-06
-4.67895e-06
-7.7371e-07
5.0826e-06
-1.12395e-06
8.95326e-06
-6.58917e-07
9.52787e-06
3.78723e-07
8.7324e-06
1.68505e-06
7.4221e-06
3.02012e-06
5.98119e-06
4.2188e-06
4.57015e-06
5.17593e-06
3.23753e-06
5.8269e-06
1.98099e-06
6.13258e-06
7.75645e-07
6.07076e-06
-4.1435e-07
5.63408e-06
-1.63063e-06
4.83415e-06
-2.91666e-06
3.71322e-06
-4.31094e-06
2.36392e-06
-5.83129e-06
9.55101e-07
-7.43797e-06
-2.48308e-07
-8.95664e-06
-8.99846e-07
-9.94346e-06
-7.0878e-07
-9.43399e-06
-5.38772e-06
-6.88944e-07
5.77154e-06
-1.65196e-08
8.28084e-06
1.79786e-06
7.71349e-06
4.07604e-06
6.45422e-06
6.36818e-06
5.12996e-06
8.42897e-06
3.92041e-06
1.01347e-05
2.86444e-06
1.14281e-05
1.94407e-06
1.22836e-05
1.12555e-06
1.26865e-05
3.72732e-07
1.26236e-05
-3.51445e-07
1.20798e-05
-1.08688e-06
1.10409e-05
-1.87773e-06
9.50396e-06
-2.77398e-06
7.5006e-06
-3.82793e-06
5.139e-06
-5.07637e-06
2.66858e-06
-6.48622e-06
5.64549e-07
-7.83943e-06
-4.45889e-07
-8.42356e-06
-5.83361e-06
1.83869e-07
5.58768e-06
3.04715e-06
5.41756e-06
6.87949e-06
3.88115e-06
1.05661e-05
2.76765e-06
1.37397e-05
1.95629e-06
1.6314e-05
1.34613e-06
1.83001e-05
8.78344e-07
1.97362e-05
5.08024e-07
2.06574e-05
2.04313e-07
2.10843e-05
-5.4179e-08
2.10175e-05
-2.84616e-07
2.04371e-05
-5.0647e-07
1.93008e-05
-7.41498e-07
1.75476e-05
-1.02071e-06
1.51085e-05
-1.38891e-06
1.19415e-05
-1.90938e-06
8.11449e-06
-2.65917e-06
3.99357e-06
-3.71851e-06
6.67398e-07
-5.09739e-06
-5.16622e-06
4.12593e-06
1.46175e-06
1.11336e-05
-1.59009e-06
1.7009e-05
-1.99425e-06
2.14854e-05
-1.70876e-06
2.48267e-05
-1.38502e-06
2.72835e-05
-1.11068e-06
2.90537e-05
-8.91824e-07
3.02735e-05
-7.11828e-07
3.10281e-05
-5.50223e-07
3.13629e-05
-3.89027e-07
3.12911e-05
-2.12795e-07
3.07923e-05
-7.71322e-09
2.98113e-05
2.39488e-07
2.82476e-05
5.43068e-07
2.59409e-05
9.17711e-07
2.2658e-05
1.37353e-06
1.81067e-05
1.89221e-06
1.20233e-05
2.36489e-06
4.68272e-06
2.24315e-06
-4.83498e-07
2.14348e-05
3.13749e-05
3.59838e-05
3.87343e-05
4.05004e-05
4.16726e-05
4.24625e-05
4.29811e-05
4.32876e-05
4.34117e-05
4.33625e-05
4.31302e-05
4.26827e-05
4.19556e-05
4.08275e-05
3.90646e-05
3.62036e-05
3.1217e-05
2.0812e-05
)
;

boundaryField
{
    movingWall
    {
        type            calculated;
        value           nonuniform List<scalar> 
20
(
-1.99731e-05
-1.15302e-05
-6.60308e-06
-4.4593e-06
-3.15107e-06
-2.2829e-06
-1.68174e-06
-1.23045e-06
-8.56713e-07
-5.13155e-07
-1.63598e-07
2.24619e-07
6.87013e-07
1.2702e-06
2.04575e-06
3.1364e-06
4.75326e-06
7.35147e-06
1.26481e-05
2.03285e-05
)
;
    }
    fixedWalls
    {
        type            calculated;
        value           uniform 0;
    }
    frontAndBack
    {
        type            empty;
        value           nonuniform List<scalar> 0();
    }
}


// ************************************************************************* //
