/*--------------------------------*- C++ -*----------------------------------*\
| =========                 |                                                 |
| \\      /  F ield         | OpenFOAM: The Open Source CFD Toolbox           |
|  \\    /   O peration     | Version:  v2012                                 |
|   \\  /    A nd           | Website:  www.openfoam.com                      |
|    \\/     M anipulation  |                                                 |
\*---------------------------------------------------------------------------*/
FoamFile
{
    version     2.0;
    format      ascii;
    class       volVectorField;
    location    "0.3";
    object      U;
}
// * * * * * * * * * * * * * * * * * * * * * * * * * * * * * * * * * * * * * //

dimensions      [0 1 -1 0 0 0 0];


internalField   nonuniform List<vector> 
400
(
(0.000194651 -0.000192298 0)
(4.86311e-05 0.000125213 0)
(-0.00111822 0.000501235 0)
(-0.00308855 0.000758115 0)
(-0.00552306 0.000880644 0)
(-0.00809497 0.000885056 0)
(-0.0105191 0.000793596 0)
(-0.0125635 0.000628621 0)
(-0.0140513 0.000410533 0)
(-0.0148596 0.00015818 0)
(-0.0149188 -0.000109807 0)
(-0.0142145 -0.000373641 0)
(-0.0127916 -0.000611338 0)
(-0.01076 -0.000798225 0)
(-0.00829854 -0.000907244 0)
(-0.00565672 -0.000910663 0)
(-0.00314655 -0.000784201 0)
(-0.00112142 -0.000514281 0)
(6.52153e-05 -0.000123571 0)
(0.000203204 0.0001995 0)
(-0.000100673 -6.95526e-05 0)
(-0.00147164 0.00149301 0)
(-0.0049706 0.00312059 0)
(-0.0100437 0.0042551 0)
(-0.0160121 0.00479528 0)
(-0.0222101 0.004772 0)
(-0.0280153 0.0042646 0)
(-0.0328969 0.00337049 0)
(-0.0364397 0.00219084 0)
(-0.0383527 0.000827352 0)
(-0.0384736 -0.000615729 0)
(-0.0367745 -0.00202828 0)
(-0.0333703 -0.00329198 0)
(-0.0285254 -0.00428067 0)
(-0.0226572 -0.00486528 0)
(-0.0163276 -0.00492582 0)
(-0.0102084 -0.00437405 0)
(-0.00501624 -0.00318922 0)
(-0.00146061 -0.00150162 0)
(-8.97537e-05 8.96919e-05 0)
(-0.000479901 0.00105962 0)
(-0.0032134 0.00500516 0)
(-0.00899406 0.00868598 0)
(-0.0167979 0.0112236 0)
(-0.0256573 0.012391 0)
(-0.0346916 0.0122221 0)
(-0.0430694 0.0108763 0)
(-0.0500726 0.00857284 0)
(-0.0551359 0.00555511 0)
(-0.0578614 0.00207781 0)
(-0.058028 -0.00159387 0)
(-0.0555998 -0.00518046 0)
(-0.0507352 -0.00838617 0)
(-0.0437952 -0.0109032 0)
(-0.0353447 -0.012427 0)
(-0.0261383 -0.0126879 0)
(-0.0170701 -0.011505 0)
(-0.00908944 -0.0088634 0)
(-0.00321253 -0.00504975 0)
(-0.00046746 -0.00102882 0)
(-0.000804906 0.00311327 0)
(-0.004802 0.0104526 0)
(-0.0127397 0.0167242 0)
(-0.0230518 0.0209043 0)
(-0.034461 0.0227061 0)
(-0.0459048 0.0222007 0)
(-0.0564038 0.0196563 0)
(-0.0651198 0.0154445 0)
(-0.0713972 0.00998551 0)
(-0.0747761 0.00372388 0)
(-0.0749995 -0.00287509 0)
(-0.0720225 -0.00932198 0)
(-0.0660229 -0.0151017 0)
(-0.0574111 -0.0196823 0)
(-0.0468361 -0.022542 0)
(-0.035175 -0.0232222 0)
(-0.0234833 -0.0214128 0)
(-0.0129142 -0.0170665 0)
(-0.0048201 -0.010564 0)
(-0.000791084 -0.00307452 0)
(-0.00108118 0.00596545 0)
(-0.00623084 0.0176523 0)
(-0.0161887 0.0269862 0)
(-0.0288346 0.032953 0)
(-0.042564 0.0353103 0)
(-0.0561407 0.0342356 0)
(-0.0684686 0.0301514 0)
(-0.0786332 0.0236143 0)
(-0.0859312 0.0152443 0)
(-0.0898727 0.0056949 0)
(-0.0901812 -0.00435231 0)
(-0.0867998 -0.0141821 0)
(-0.0799031 -0.0230416 0)
(-0.0699128 -0.0301508 0)
(-0.0575143 -0.0347386 0)
(-0.0436621 -0.0361143 0)
(-0.0295432 -0.0337808 0)
(-0.016515 -0.0275813 0)
(-0.00629686 -0.0178859 0)
(-0.00107085 -0.00592941 0)
(-0.00133192 0.00953476 0)
(-0.0075596 0.0264923 0)
(-0.0194239 0.039352 0)
(-0.0342527 0.0472238 0)
(-0.0501079 0.0500233 0)
(-0.065586 0.0481223 0)
(-0.0795008 0.0421604 0)
(-0.0908971 0.0329171 0)
(-0.0990606 0.0212336 0)
(-0.1035 0.00798003 0)
(-0.103932 -0.00594501 0)
(-0.100285 -0.0196013 0)
(-0.0927085 -0.0319947 0)
(-0.0816 -0.0420832 0)
(-0.067638 -0.0488147 0)
(-0.0518137 -0.0512123 0)
(-0.0354209 -0.0485122 0)
(-0.0200213 -0.0403445 0)
(-0.0077265 -0.0269511 0)
(-0.00133603 -0.00953292 0)
(-0.00157828 0.0137829 0)
(-0.00885074 0.0368946 0)
(-0.0225343 0.0537079 0)
(-0.0393953 0.0635594 0)
(-0.0571603 0.0666451 0)
(-0.0742766 0.0636369 0)
(-0.0895016 0.0554655 0)
(-0.101882 0.0431773 0)
(-0.110733 0.027851 0)
(-0.115593 0.0105708 0)
(-0.11619 -0.00756264 0)
(-0.112432 -0.0254023 0)
(-0.104424 -0.0417256 0)
(-0.0924989 -0.0552252 0)
(-0.07728 -0.0645397 0)
(-0.0597446 -0.0683434 0)
(-0.0412544 -0.0655066 0)
(-0.0235627 -0.0553169 0)
(-0.00919446 -0.0377513 0)
(-0.00161409 -0.0138815 0)
(-0.00183822 0.0187078 0)
(-0.0101562 0.0488134 0)
(-0.0255818 0.0699358 0)
(-0.0442865 0.0817584 0)
(-0.063665 0.0849043 0)
(-0.0820501 0.0804709 0)
(-0.0981969 0.0697668 0)
(-0.111212 0.0541502 0)
(-0.120495 0.0349474 0)
(-0.125651 0.0134399 0)
(-0.126441 -0.00910219 0)
(-0.122758 -0.0313637 0)
(-0.114636 -0.0519259 0)
(-0.102302 -0.0692297 0)
(-0.0862591 -0.0815849 0)
(-0.067399 -0.0872514 0)
(-0.0470857 -0.0846164 0)
(-0.0272255 -0.0724629 0)
(-0.0107708 -0.0503265 0)
(-0.00192895 -0.0190202 0)
(-0.00212862 0.0243359 0)
(-0.0115166 0.0622219 0)
(-0.0285871 0.0878871 0)
(-0.0488562 0.101534 0)
(-0.0693992 0.104402 0)
(-0.0884976 0.0981704 0)
(-0.104986 0.084622 0)
(-0.118115 0.0654703 0)
(-0.127437 0.0422876 0)
(-0.132679 0.0165186 0)
(-0.133668 -0.0104517 0)
(-0.130282 -0.0372023 0)
(-0.122467 -0.0621764 0)
(-0.110292 -0.0836012 0)
(-0.0940609 -0.0994564 0)
(-0.0744793 -0.107528 0)
(-0.0528074 -0.105587 0)
(-0.0310241 -0.0917078 0)
(-0.012504 -0.0647405 0)
(-0.00230226 -0.0250324 0)
(-0.00247031 0.0307196 0)
(-0.0129688 0.0770895 0)
(-0.0315237 0.107334 0)
(-0.0529108 0.12244 0)
(-0.073923 0.124529 0)
(-0.0928967 0.11605 0)
(-0.10887 0.0993689 0)
(-0.121349 0.0765875 0)
(-0.130129 0.0495035 0)
(-0.135127 0.019668 0)
(-0.136269 -0.011498 0)
(-0.133438 -0.0425581 0)
(-0.126475 -0.0719066 0)
(-0.115236 -0.0976289 0)
(-0.0997359 -0.117406 0)
(-0.0803585 -0.128511 0)
(-0.0581019 -0.127959 0)
(-0.0348738 -0.112861 0)
(-0.0144189 -0.0810385 0)
(-0.00275674 -0.0320295 0)
(-0.00289625 0.0379418 0)
(-0.0145556 0.0933532 0)
(-0.0343045 0.127896 0)
(-0.0560835 0.143773 0)
(-0.0764966 0.144356 0)
(-0.0941119 0.133096 0)
(-0.108346 0.113045 0)
(-0.119103 0.0867049 0)
(-0.126528 0.0560489 0)
(-0.130794 0.0226499 0)
(-0.131977 -0.0121406 0)
(-0.129984 -0.0469891 0)
(-0.124544 -0.0803642 0)
(-0.115262 -0.110324 0)
(-0.101766 -0.134333 0)
(-0.0839576 -0.149157 0)
(-0.0623523 -0.150932 0)
(-0.038548 -0.135504 0)
(-0.0165136 -0.0991859 0)
(-0.00332129 -0.0401435 0)
(-0.00346418 0.0461356 0)
(-0.0163345 0.110877 0)
(-0.0367396 0.148932 0)
(-0.0577281 0.164429 0)
(-0.0759314 0.1625 0)
(-0.0904308 0.147857 0)
(-0.101256 0.124313 0)
(-0.108874 0.0947315 0)
(-0.113876 0.0611684 0)
(-0.116758 0.0251031 0)
(-0.117782 -0.0123108 0)
(-0.116909 -0.0499819 0)
(-0.113771 -0.0866065 0)
(-0.107709 -0.120378 0)
(-0.0978877 -0.148694 0)
(-0.0835656 -0.167899 0)
(-0.0644946 -0.173188 0)
(-0.0415974 -0.158828 0)
(-0.0187449 -0.118979 0)
(-0.00403778 -0.0495249 0)
(-0.00427382 0.0555229 0)
(-0.0183662 0.129373 0)
(-0.0384141 0.169352 0)
(-0.0566924 0.1827 0)
(-0.070313 0.176965 0)
(-0.079297 0.158353 0)
(-0.0845684 0.131422 0)
(-0.0873026 0.0992744 0)
(-0.0886044 0.0639003 0)
(-0.0893105 0.0265388 0)
(-0.0898883 -0.0119917 0)
(-0.0903809 -0.0509847 0)
(-0.0903706 -0.0895304 0)
(-0.0889679 -0.12616 0)
(-0.0848715 -0.158434 0)
(-0.0765739 -0.182491 0)
(-0.062766 -0.192661 0)
(-0.0431843 -0.181387 0)
(-0.0209835 -0.139894 0)
(-0.00496714 -0.0603424 0)
(-0.00547615 0.0664356 0)
(-0.0206246 0.148173 0)
(-0.0383736 0.187265 0)
(-0.0508448 0.195963 0)
(-0.0565043 0.184957 0)
(-0.0568866 0.162012 0)
(-0.0540715 0.132234 0)
(-0.0500036 0.0987093 0)
(-0.0462617 0.0631428 0)
(-0.0439658 0.0263742 0)
(-0.0437565 -0.0112333 0)
(-0.0457796 -0.0494706 0)
(-0.0496434 -0.0879645 0)
(-0.054351 -0.125797 0)
(-0.0582496 -0.160999 0)
(-0.0590844 -0.189879 0)
(-0.0542669 -0.206235 0)
(-0.0417389 -0.200694 0)
(-0.0228753 -0.160767 0)
(-0.00617762 -0.0727339 0)
(-0.00721568 0.0792388 0)
(-0.0226436 0.165656 0)
(-0.0343409 0.199297 0)
(-0.0361175 0.200233 0)
(-0.0292838 0.18273 0)
(-0.017476 0.155744 0)
(-0.00399753 0.124414 0)
(0.00859725 0.0913892 0)
(0.0184757 0.0578262 0)
(0.0244201 0.024028 0)
(0.025723 -0.0101547 0)
(0.0221408 -0.0450422 0)
(0.0139315 -0.0808614 0)
(0.00197828 -0.117405 0)
(-0.0120168 -0.153506 0)
(-0.0253371 -0.186188 0)
(-0.0341851 -0.209417 0)
(-0.0342163 -0.212573 0)
(-0.0234345 -0.179132 0)
(-0.00765313 -0.086619 0)
(-0.00929358 0.0945079 0)
(-0.0224109 0.17856 0)
(-0.0208938 0.199926 0)
(-0.00468722 0.190016 0)
(0.020011 0.165903 0)
(0.047371 0.136489 0)
(0.073335 0.10602 0)
(0.0952883 0.0761663 0)
(0.111614 0.0472982 0)
(0.12133 0.0191392 0)
(0.123847 -0.00891071 0)
(0.118866 -0.0375996 0)
(0.106396 -0.0676716 0)
(0.0869025 -0.0996467 0)
(0.0616262 -0.133392 0)
(0.0330627 -0.167262 0)
(0.00552774 -0.196504 0)
(-0.0145416 -0.210785 0)
(-0.019946 -0.190636 0)
(-0.00891685 -0.101758 0)
(-0.00977117 0.113831 0)
(-0.013345 0.181306 0)
(0.0142259 0.181418 0)
(0.0579027 0.159227 0)
(0.105117 0.130903 0)
(0.149423 0.102717 0)
(0.187486 0.0767948 0)
(0.217667 0.0533829 0)
(0.239251 0.032014 0)
(0.251903 0.0119722 0)
(0.255375 -0.00756929 0)
(0.249388 -0.0275243 0)
(0.233622 -0.0488815 0)
(0.207831 -0.0726599 0)
(0.172167 -0.0997115 0)
(0.127825 -0.130122 0)
(0.0779808 -0.161734 0)
(0.0292177 -0.187306 0)
(-0.00527096 -0.18853 0)
(-0.00765584 -0.118263 0)
(0.00111305 0.128886 0)
(0.0243971 0.15478 0)
(0.0970226 0.128674 0)
(0.176278 0.0998986 0)
(0.245807 0.0751402 0)
(0.303295 0.0548925 0)
(0.348777 0.0385116 0)
(0.382851 0.0250315 0)
(0.406307 0.0135748 0)
(0.419744 0.00341019 0)
(0.423391 -0.00611943 0)
(0.417064 -0.0156814 0)
(0.400139 -0.0260535 0)
(0.371551 -0.0382066 0)
(0.329934 -0.0533726 0)
(0.274057 -0.0729583 0)
(0.203404 -0.0979639 0)
(0.119861 -0.127452 0)
(0.0392917 -0.152811 0)
(0.00569608 -0.125428 0)
(0.0699975 0.0606643 0)
(0.153723 0.0312715 0)
(0.282687 0.00833616 0)
(0.389951 -0.00102307 0)
(0.467608 -0.00480942 0)
(0.524469 -0.00643339 0)
(0.566058 -0.00712199 0)
(0.595539 -0.00730126 0)
(0.615022 -0.00707363 0)
(0.625797 -0.00642347 0)
(0.628443 -0.00530427 0)
(0.622894 -0.003677 0)
(0.608419 -0.00155283 0)
(0.583496 0.000963347 0)
(0.545613 0.0035848 0)
(0.491036 0.00563149 0)
(0.41379 0.00552915 0)
(0.304513 -0.000300124 0)
(0.168985 -0.0188897 0)
(0.0722289 -0.0458449 0)
(0.397754 -0.21081 0)
(0.554081 -0.189748 0)
(0.67675 -0.136329 0)
(0.751717 -0.098458 0)
(0.795451 -0.0722511 0)
(0.823601 -0.0537664 0)
(0.842653 -0.0403882 0)
(0.855447 -0.0301141 0)
(0.863536 -0.0215085 0)
(0.867769 -0.0135407 0)
(0.868521 -0.00540006 0)
(0.865786 0.003641 0)
(0.859167 0.0143542 0)
(0.847749 0.027696 0)
(0.829804 0.0450282 0)
(0.80215 0.0684296 0)
(0.757975 0.101023 0)
(0.68093 0.147741 0)
(0.549245 0.212829 0)
(0.36767 0.232645 0)
)
;

boundaryField
{
    movingWall
    {
        type            fixedValue;
        value           uniform (1 0 0);
    }
    fixedWalls
    {
        type            noSlip;
    }
    frontAndBack
    {
        type            empty;
    }
}


// ************************************************************************* //
