/*--------------------------------*- C++ -*----------------------------------*\
| =========                 |                                                 |
| \\      /  F ield         | OpenFOAM: The Open Source CFD Toolbox           |
|  \\    /   O peration     | Version:  v2012                                 |
|   \\  /    A nd           | Website:  www.openfoam.com                      |
|    \\/     M anipulation  |                                                 |
\*---------------------------------------------------------------------------*/
FoamFile
{
    version     2.0;
    format      ascii;
    class       volScalarField;
    location    "0.6";
    object      p;
}
// * * * * * * * * * * * * * * * * * * * * * * * * * * * * * * * * * * * * * //

dimensions      [0 2 -2 0 0 0 0];


internalField   nonuniform List<scalar> 
400
(
-0.0396142
-0.0444948
-0.0501692
-0.0541734
-0.0551394
-0.0524968
-0.0462529
-0.0368142
-0.0248566
-0.0112413
0.00304628
0.0169501
0.029405
0.0394144
0.0461521
0.0490959
0.0481974
0.0440779
0.0382312
0.0332552
-0.0347757
-0.0397912
-0.0441806
-0.0467931
-0.0470062
-0.0444222
-0.0390211
-0.0310969
-0.0211647
-0.00990022
0.00190954
0.0134159
0.0237654
0.0321694
0.0379875
0.0408286
0.040677
0.037971
0.0334356
0.0283309
-0.0287794
-0.0356618
-0.0403788
-0.0427087
-0.042735
-0.0402648
-0.0353332
-0.0282174
-0.0193624
-0.00934286
0.00116933
0.0114439
0.02074
0.0283646
0.0337395
0.036482
0.0365141
0.034066
0.0291585
0.0221366
-0.0237687
-0.0331322
-0.0389413
-0.041576
-0.0417003
-0.0393083
-0.0345227
-0.0276562
-0.0191416
-0.0095115
0.000616557
0.0105657
0.0196359
0.0271512
0.0325139
0.035274
0.0352439
0.0324598
0.0263741
0.0167689
-0.0211313
-0.0329934
-0.0400454
-0.0431048
-0.0433232
-0.0408583
-0.0359238
-0.0288862
-0.0201916
-0.0103592
1.65174e-05
0.0102778
0.0197274
0.0276646
0.0334287
0.0364636
0.0364491
0.0332392
0.0258045
0.0135378
-0.0218784
-0.0361375
-0.0443915
-0.0478047
-0.0479587
-0.0451593
-0.0397126
-0.0320488
-0.022642
-0.0120167
-0.000764347
0.0104533
0.0209154
0.0298658
0.0365471
0.0402639
0.0405381
0.0370368
0.0282875
0.013381
-0.0268757
-0.0434213
-0.0527314
-0.0562858
-0.0560824
-0.0525764
-0.0461726
-0.0373719
-0.0266852
-0.0146507
-0.00186687
0.0109891
0.0231569
0.0338039
0.0420472
0.0470172
0.0480419
0.0445713
0.0346689
0.0171391
-0.037015
-0.0557374
-0.0658564
-0.0691918
-0.0681922
-0.0634862
-0.0555906
-0.0450839
-0.0325152
-0.0184341
-0.00344257
0.011769
0.0263992
0.0395284
0.0501258
0.0571103
0.0595649
0.056659
0.045907
0.025772
-0.0533482
-0.0741177
-0.0846688
-0.0872441
-0.084833
-0.0782862
-0.0682559
-0.0554042
-0.040311
-0.0235231
-0.00562664
0.0126939
0.0306111
0.047123
0.0610378
0.0710243
0.0758533
0.0743126
0.063211
0.0405417
-0.0772103
-0.0998259
-0.110224
-0.111239
-0.106559
-0.0973378
-0.0843941
-0.0684759
-0.0501756
-0.0300057
-0.00849911
0.0137059
0.0357927
0.0567033
0.0750888
0.0893358
0.0978226
0.0988133
0.0881701
0.0631891
-0.110385
-0.134471
-0.143769
-0.142016
-0.133861
-0.120869
-0.104062
-0.0842645
-0.0620434
-0.0378245
-0.0120264
0.0148248
0.0419893
0.0684105
0.0926167
0.112702
0.12657
0.131778
0.1229
0.0961558
-0.155383
-0.180164
-0.186764
-0.180392
-0.167042
-0.148831
-0.127005
-0.102424
-0.0755637
-0.04668
-0.0159874
0.0161966
0.0493105
0.0824003
0.113956
0.141815
0.163351
0.175206
0.170218
0.142905
-0.215989
-0.239765
-0.240875
-0.227014
-0.206026
-0.1807
-0.152473
-0.122144
-0.0899756
-0.0559337
-0.0199052
0.0181303
0.057932
0.0988052
0.139362
0.177309
0.209509
0.231504
0.233882
0.208484
-0.298463
-0.317374
-0.307985
-0.282171
-0.250111
-0.215252
-0.179049
-0.142025
-0.104031
-0.0645664
-0.0230346
0.0210826
0.0680475
0.117646
0.168879
0.2196
0.266348
0.303522
0.319054
0.300646
-0.413595
-0.41884
-0.389939
-0.345369
-0.297587
-0.250291
-0.204498
-0.160036
-0.116022
-0.0712596
-0.024483
0.0255
0.0796642
0.138561
0.201975
0.268427
0.334639
0.394195
0.43254
0.431479
-0.577896
-0.549589
-0.485856
-0.413273
-0.344299
-0.281733
-0.225256
-0.173286
-0.12376
-0.0745254
-0.0234728
0.0314143
0.092015
0.159951
0.236308
0.321088
0.412177
0.503386
0.579849
0.617342
-0.819211
-0.711146
-0.587839
-0.477041
-0.382179
-0.302901
-0.236203
-0.178078
-0.124781
-0.0729974
-0.0197014
0.0380089
0.103013
0.178249
0.266669
0.370836
0.491261
0.624013
0.761802
0.882625
-1.23849
-0.931291
-0.699556
-0.535816
-0.409983
-0.313134
-0.237469
-0.175179
-0.120242
-0.0680464
-0.0146743
0.0436609
0.110848
0.191357
0.290688
0.415521
0.571458
0.761709
1.00732
1.31774
-2.07403
-1.28781
-0.845861
-0.604909
-0.441237
-0.325129
-0.240727
-0.175023
-0.119228
-0.0672718
-0.0143162
0.0440529
0.112731
0.197789
0.307834
0.455554
0.656756
0.93537
1.38691
2.13053
-2.63639
-1.28162
-0.730697
-0.492508
-0.347607
-0.251637
-0.185272
-0.135499
-0.0943117
-0.0564746
-0.0180011
0.0246992
0.07552
0.139556
0.22461
0.344017
0.520597
0.803257
1.3753
2.60138
)
;

boundaryField
{
    movingWall
    {
        type            fixedValue;
        value           uniform 0;
    }
    fixedWalls
    {
        type            zeroGradient;
    }
    frontAndBack
    {
        type            empty;
    }
}


// ************************************************************************* //
