/*--------------------------------*- C++ -*----------------------------------*\
| =========                 |                                                 |
| \\      /  F ield         | OpenFOAM: The Open Source CFD Toolbox           |
|  \\    /   O peration     | Version:  v2012                                 |
|   \\  /    A nd           | Website:  www.openfoam.com                      |
|    \\/     M anipulation  |                                                 |
\*---------------------------------------------------------------------------*/
FoamFile
{
    version     2.0;
    format      ascii;
    class       surfaceScalarField;
    location    "0.6";
    object      phi;
}
// * * * * * * * * * * * * * * * * * * * * * * * * * * * * * * * * * * * * * //

dimensions      [0 3 -1 0 0 0 0];
oriented        oriented;


internalField   nonuniform List<scalar> 
760
(
1.00772e-08
-1.00772e-08
-2.37001e-08
3.37774e-08
-1.03475e-07
7.97751e-08
-2.1461e-07
1.11134e-07
-3.40515e-07
1.25905e-07
-4.65939e-07
1.25424e-07
-5.78009e-07
1.12071e-07
-6.66561e-07
8.85523e-08
-7.2413e-07
5.75699e-08
-7.45909e-07
2.17791e-08
-7.29788e-07
-1.61215e-08
-6.76512e-07
-5.32765e-08
-5.89921e-07
-8.65921e-08
-4.77194e-07
-1.12727e-07
-3.48997e-07
-1.28196e-07
-2.19338e-07
-1.29659e-07
-1.04848e-07
-1.1449e-07
-2.32018e-08
-8.16459e-08
1.07203e-08
-3.39225e-08
1.07199e-08
-3.21838e-08
2.21065e-08
-1.59285e-07
1.60879e-07
-3.74446e-07
2.94936e-07
-6.50882e-07
3.87571e-07
-9.55688e-07
4.3071e-07
-1.25631e-06
4.2605e-07
-1.52388e-06
3.79635e-07
-1.73478e-06
2.99451e-07
-1.87137e-06
1.94167e-07
-1.92233e-06
7.27321e-08
-1.88287e-06
-5.55784e-08
-1.75516e-06
-1.80986e-07
-1.54866e-06
-2.93093e-07
-1.28039e-06
-3.80994e-07
-9.74806e-07
-4.33783e-07
-6.62822e-07
-4.41643e-07
-3.79543e-07
-3.97769e-07
-1.59977e-07
-3.01211e-07
-3.16116e-08
-1.62288e-07
-2.08919e-08
-8.04988e-08
1.02605e-07
-3.04891e-07
3.85271e-07
-6.45037e-07
6.35083e-07
-1.06126e-06
8.0379e-07
-1.50903e-06
8.78487e-07
-1.94479e-06
8.61811e-07
-2.32965e-06
7.64495e-07
-2.63157e-06
6.01369e-07
-2.82648e-06
3.89073e-07
-2.89889e-06
1.45141e-07
-2.84235e-06
-1.12114e-07
-2.65992e-06
-3.63418e-07
-2.36457e-06
-5.88443e-07
-1.97943e-06
-7.66132e-07
-1.53745e-06
-8.75762e-07
-1.08003e-06
-8.99069e-07
-6.5406e-07
-8.23735e-07
-3.07058e-07
-6.48213e-07
-8.00706e-08
-3.89274e-07
-1.00962e-07
-1.23134e-07
2.25739e-07
-4.39206e-07
7.01343e-07
-8.95969e-07
1.09185e-06
-1.43804e-06
1.34587e-06
-2.00966e-06
1.45011e-06
-2.55863e-06
1.41077e-06
-3.03927e-06
1.24514e-06
-3.41433e-06
9.76424e-07
-3.65591e-06
6.30654e-07
-3.74607e-06
2.35304e-07
-3.67725e-06
-1.80932e-07
-3.45276e-06
-5.87913e-07
-3.08728e-06
-9.53915e-07
-2.6073e-06
-1.24612e-06
-2.05089e-06
-1.43217e-06
-1.46663e-06
-1.48334e-06
-9.10933e-07
-1.37943e-06
-4.43766e-07
-1.11538e-06
-1.22996e-07
-7.10044e-07
-2.23958e-07
-1.60743e-07
3.86482e-07
-5.61848e-07
1.10245e-06
-1.12755e-06
1.65754e-06
-1.78547e-06
2.00379e-06
-2.46832e-06
2.13295e-06
-3.11627e-06
2.05873e-06
-3.6788e-06
1.80766e-06
-4.11554e-06
1.41317e-06
-4.39669e-06
9.11801e-07
-4.50305e-06
3.41666e-07
-4.42628e-06
-2.57707e-07
-4.16929e-06
-8.44903e-07
-3.74698e-06
-1.37622e-06
-3.18701e-06
-1.80609e-06
-2.53027e-06
-2.08891e-06
-1.83062e-06
-2.18299e-06
-1.15322e-06
-2.05682e-06
-5.71325e-07
-1.69728e-06
-1.61604e-07
-1.11977e-06
-3.85561e-07
-1.9543e-07
5.81912e-07
-6.7649e-07
1.58351e-06
-1.34455e-06
2.32561e-06
-2.10976e-06
2.769e-06
-2.8932e-06
2.91639e-06
-3.62831e-06
2.79384e-06
-4.26124e-06
2.4406e-06
-4.75038e-06
1.90231e-06
-5.06559e-06
1.22701e-06
-5.18749e-06
4.63568e-07
-5.1072e-06
-3.37997e-07
-4.82663e-06
-1.12547e-06
-4.35945e-06
-1.84341e-06
-3.7325e-06
-2.43304e-06
-2.98741e-06
-2.834e-06
-2.18165e-06
-2.98875e-06
-1.38852e-06
-2.84995e-06
-6.95196e-07
-2.3906e-06
-1.98676e-07
-1.61629e-06
-5.84237e-07
-2.29148e-07
8.11061e-07
-7.87014e-07
2.14137e-06
-1.55151e-06
3.09011e-06
-2.41484e-06
3.63233e-06
-3.28689e-06
3.78843e-06
-4.09566e-06
3.60261e-06
-4.78589e-06
3.13083e-06
-5.31679e-06
2.43321e-06
-5.6597e-06
1.56992e-06
-5.79623e-06
6.00106e-07
-5.71732e-06
-4.16913e-07
-5.42325e-06
-1.41954e-06
-4.92494e-06
-2.34171e-06
-4.24625e-06
-3.11172e-06
-3.427e-06
-3.65326e-06
-2.52608e-06
-3.88967e-06
-1.62361e-06
-3.75242e-06
-8.20874e-07
-3.19333e-06
-2.36827e-07
-2.20033e-06
-8.21064e-07
-2.63488e-07
1.07455e-06
-8.96353e-07
2.77424e-06
-1.75065e-06
3.94441e-06
-2.69996e-06
4.58163e-06
-3.64395e-06
4.73242e-06
-4.50741e-06
4.46607e-06
-5.23648e-06
3.8599e-06
-5.79398e-06
2.99071e-06
-6.15504e-06
1.93098e-06
-6.30386e-06
7.48919e-07
-6.23171e-06
-4.89062e-07
-5.93675e-06
-1.71451e-06
-5.42548e-06
-2.85298e-06
-4.71607e-06
-3.82113e-06
-3.84316e-06
-4.52617e-06
-2.86362e-06
-4.86922e-06
-1.86179e-06
-4.75425e-06
-9.52374e-07
-4.10275e-06
-2.78193e-07
-2.87451e-06
-1.09926e-06
-2.99747e-07
1.3743e-06
-1.00614e-06
3.48063e-06
-1.94083e-06
4.8791e-06
-2.95783e-06
5.59864e-06
-3.94861e-06
5.72319e-06
-4.83834e-06
5.35581e-06
-5.5787e-06
4.60026e-06
-6.13994e-06
3.55195e-06
-6.50413e-06
2.29517e-06
-6.66006e-06
9.04856e-07
-6.60034e-06
-5.48784e-07
-6.32059e-06
-1.99426e-06
-5.82111e-06
-3.35245e-06
-5.11114e-06
-4.53111e-06
-4.21562e-06
-5.42169e-06
-3.1842e-06
-5.90063e-06
-2.10086e-06
-5.83758e-06
-1.09138e-06
-5.11223e-06
-3.24372e-07
-3.64153e-06
-1.42363e-06
-3.39242e-07
1.71354e-06
-1.11675e-06
4.25813e-06
-2.11665e-06
5.879e-06
-3.17268e-06
6.65467e-06
-4.17183e-06
6.72234e-06
-5.04541e-06
6.22939e-06
-5.75649e-06
5.31134e-06
-6.28785e-06
4.08332e-06
-6.63234e-06
2.63966e-06
-6.78601e-06
1.05852e-06
-6.74408e-06
-5.90712e-07
-6.4996e-06
-2.23874e-06
-6.045e-06
-3.80706e-06
-5.37693e-06
-5.19918e-06
-4.50498e-06
-6.29363e-06
-3.46429e-06
-6.94132e-06
-2.3309e-06
-6.97097e-06
-1.23656e-06
-6.20656e-06
-3.76507e-07
-4.50158e-06
-1.80014e-06
-3.83803e-07
2.09734e-06
-1.22732e-06
5.10165e-06
-2.26692e-06
6.91861e-06
-3.3169e-06
7.70465e-06
-4.26674e-06
7.67218e-06
-5.06265e-06
7.0253e-06
-5.68703e-06
5.93572e-06
-6.14135e-06
4.53764e-06
-6.43362e-06
2.93192e-06
-6.57003e-06
1.19494e-06
-6.55012e-06
-6.10624e-07
-6.36479e-06
-2.42407e-06
-5.9974e-06
-4.17444e-06
-5.42864e-06
-5.76794e-06
-4.64633e-06
-7.07595e-06
-3.66155e-06
-7.92611e-06
-2.53097e-06
-8.10155e-06
-1.38245e-06
-7.35509e-06
-4.35408e-07
-5.44862e-06
-2.23554e-06
-4.36418e-07
2.53376e-06
-1.33494e-06
6.00017e-06
-2.37096e-06
7.95463e-06
-3.34466e-06
8.67835e-06
-4.16082e-06
8.48834e-06
-4.7933e-06
7.65778e-06
-5.25374e-06
6.39615e-06
-5.56887e-06
4.85277e-06
-5.7659e-06
3.12896e-06
-5.86372e-06
1.29275e-06
-5.86787e-06
-6.0647e-07
-5.76823e-06
-2.5237e-06
-5.53914e-06
-4.40353e-06
-5.14311e-06
-6.16397e-06
-4.5403e-06
-7.67876e-06
-3.70666e-06
-8.75974e-06
-2.66343e-06
-9.14478e-06
-1.51709e-06
-8.50143e-06
-5.01581e-07
-6.46413e-06
-2.73713e-06
-5.01825e-07
3.03558e-06
-1.43145e-06
6.92979e-06
-2.38978e-06
8.91296e-06
-3.17929e-06
9.46786e-06
-3.74222e-06
9.05127e-06
-4.09755e-06
8.01311e-06
-4.2968e-06
6.5954e-06
-4.39719e-06
4.95316e-06
-4.44724e-06
3.17901e-06
-4.47948e-06
1.32499e-06
-4.50666e-06
-5.79289e-07
-4.51946e-06
-2.51091e-06
-4.48527e-06
-4.43773e-06
-4.34926e-06
-6.29998e-06
-4.0408e-06
-7.98722e-06
-3.49029e-06
-9.31025e-06
-2.66335e-06
-9.97172e-06
-1.61688e-06
-9.5479e-06
-5.748e-07
-7.50621e-06
-3.31192e-06
-5.8572e-07
3.6213e-06
-1.4934e-06
7.83747e-06
-2.24619e-06
9.66576e-06
-2.68887e-06
9.91054e-06
-2.83671e-06
9.19911e-06
-2.77435e-06
7.95075e-06
-2.60115e-06
6.4222e-06
-2.40531e-06
4.75732e-06
-2.25418e-06
3.02787e-06
-2.19166e-06
1.26248e-06
-2.23742e-06
-5.33532e-07
-2.38537e-06
-2.36295e-06
-2.60094e-06
-4.22215e-06
-2.81796e-06
-6.08296e-06
-2.93844e-06
-7.86674e-06
-2.8423e-06
-9.40639e-06
-2.41884e-06
-1.03952e-05
-1.63447e-06
-1.03323e-05
-6.51559e-07
-8.48912e-06
-3.96348e-06
-6.87633e-07
4.30894e-06
-1.45333e-06
8.60317e-06
-1.78073e-06
9.99316e-06
-1.64055e-06
9.77036e-06
-1.17023e-06
8.72879e-06
-5.36117e-07
7.31664e-06
1.16906e-07
5.76917e-06
6.79289e-07
4.19494e-06
1.07502e-06
2.63215e-06
1.2561e-06
1.08139e-06
1.19876e-06
-4.76199e-07
9.03277e-07
-2.06747e-06
3.97954e-07
-3.71683e-06
-2.5281e-07
-5.4322e-06
-9.386e-07
-7.18095e-06
-1.49781e-06
-8.84718e-06
-1.73258e-06
-1.01604e-05
-1.46955e-06
-1.05953e-05
-7.15538e-07
-9.24313e-06
-4.67902e-06
-7.73687e-07
5.08262e-06
-1.12388e-06
8.95336e-06
-6.58764e-07
9.52804e-06
3.78969e-07
8.73263e-06
1.68539e-06
7.42236e-06
3.02056e-06
5.98147e-06
4.21933e-06
4.57041e-06
5.17653e-06
3.23774e-06
5.82755e-06
1.98113e-06
6.13324e-06
7.75702e-07
6.07142e-06
-4.14379e-07
5.6347e-06
-1.63074e-06
4.83471e-06
-2.91684e-06
3.7137e-06
-4.31118e-06
2.3643e-06
-5.83156e-06
9.55378e-07
-7.43825e-06
-2.48132e-07
-8.9569e-06
-8.99757e-07
-9.94367e-06
-7.08752e-07
-9.43413e-06
-5.38778e-06
-6.88928e-07
5.77155e-06
-1.64609e-08
8.28089e-06
1.79798e-06
7.7136e-06
4.07625e-06
6.45437e-06
6.36848e-06
5.13013e-06
8.42935e-06
3.92059e-06
1.01352e-05
2.86461e-06
1.14287e-05
1.94421e-06
1.22842e-05
1.12564e-06
1.26871e-05
3.72766e-07
1.26242e-05
-3.5147e-07
1.20804e-05
-1.08696e-06
1.10414e-05
-1.87786e-06
9.5044e-06
-2.77414e-06
7.50096e-06
-3.82811e-06
5.13926e-06
-5.07656e-06
2.66874e-06
-6.48639e-06
5.64633e-07
-7.83956e-06
-4.45863e-07
-8.42364e-06
-5.83364e-06
1.83877e-07
5.58768e-06
3.04718e-06
5.41758e-06
6.87958e-06
3.88121e-06
1.05662e-05
2.76773e-06
1.374e-05
1.95639e-06
1.63143e-05
1.34623e-06
1.83005e-05
8.78441e-07
1.97366e-05
5.08101e-07
2.06579e-05
2.0436e-07
2.10848e-05
-5.41675e-08
2.1018e-05
-2.84641e-07
2.04375e-05
-5.06527e-07
1.93013e-05
-7.41582e-07
1.75479e-05
-1.02081e-06
1.51088e-05
-1.38902e-06
1.19418e-05
-1.90948e-06
8.11462e-06
-2.65926e-06
3.99364e-06
-3.71858e-06
6.67419e-07
-5.09742e-06
-5.16622e-06
4.12593e-06
1.46175e-06
1.11336e-05
-1.59007e-06
1.7009e-05
-1.99423e-06
2.14855e-05
-1.70872e-06
2.48268e-05
-1.38497e-06
2.72837e-05
-1.11062e-06
2.90539e-05
-8.91779e-07
3.02738e-05
-7.11796e-07
3.10284e-05
-5.50208e-07
3.13632e-05
-3.89032e-07
3.12914e-05
-2.12819e-07
3.07926e-05
-7.75622e-09
2.98116e-05
2.39436e-07
2.82478e-05
5.43011e-07
2.59411e-05
9.17654e-07
2.26582e-05
1.37348e-06
1.81067e-05
1.89217e-06
1.20233e-05
2.36487e-06
4.68273e-06
2.24314e-06
-4.8349e-07
2.14348e-05
3.13749e-05
3.59838e-05
3.87343e-05
4.05004e-05
4.16726e-05
4.24626e-05
4.29812e-05
4.32877e-05
4.34119e-05
4.33627e-05
4.31303e-05
4.26828e-05
4.19556e-05
4.08276e-05
3.90647e-05
3.62036e-05
3.1217e-05
2.0812e-05
)
;

boundaryField
{
    movingWall
    {
        type            calculated;
        value           nonuniform List<scalar> 
20
(
-1.99731e-05
-1.15302e-05
-6.60306e-06
-4.45927e-06
-3.15104e-06
-2.28287e-06
-1.68172e-06
-1.23043e-06
-8.56712e-07
-5.13166e-07
-1.63622e-07
2.24584e-07
6.86974e-07
1.27016e-06
2.04571e-06
3.13637e-06
4.75324e-06
7.35147e-06
1.26482e-05
2.03285e-05
)
;
    }
    fixedWalls
    {
        type            calculated;
        value           uniform 0;
    }
    frontAndBack
    {
        type            empty;
        value           nonuniform List<scalar> 0();
    }
}


// ************************************************************************* //
