/*--------------------------------*- C++ -*----------------------------------*\
| =========                 |                                                 |
| \\      /  F ield         | OpenFOAM: The Open Source CFD Toolbox           |
|  \\    /   O peration     | Version:  v2012                                 |
|   \\  /    A nd           | Website:  www.openfoam.com                      |
|    \\/     M anipulation  |                                                 |
\*---------------------------------------------------------------------------*/
FoamFile
{
    version     2.0;
    format      ascii;
    class       volVectorField;
    location    "0.6";
    object      U;
}
// * * * * * * * * * * * * * * * * * * * * * * * * * * * * * * * * * * * * * //

dimensions      [0 1 -1 0 0 0 0];


internalField   nonuniform List<vector> 
400
(
(0.000194688 -0.000192334 0)
(4.86778e-05 0.000125222 0)
(-0.00111832 0.000501303 0)
(-0.00308897 0.000758231 0)
(-0.00552392 0.000880796 0)
(-0.00809631 0.000885224 0)
(-0.0105209 0.000793756 0)
(-0.0125657 0.000628749 0)
(-0.0140537 0.000410613 0)
(-0.0148622 0.000158206 0)
(-0.0149214 -0.000109837 0)
(-0.0142169 -0.000373725 0)
(-0.0127938 -0.000611465 0)
(-0.0107618 -0.000798378 0)
(-0.00829989 -0.000907403 0)
(-0.00565759 -0.000910811 0)
(-0.00314697 -0.000784324 0)
(-0.0011215 -0.000514364 0)
(6.53097e-05 -0.000123595 0)
(0.000203266 0.000199529 0)
(-0.000100691 -6.9587e-05 0)
(-0.00147186 0.00149323 0)
(-0.00497136 0.00312109 0)
(-0.0100454 0.00425581 0)
(-0.0160148 0.00479612 0)
(-0.0222139 0.00477287 0)
(-0.0280203 0.00426541 0)
(-0.0329027 0.00337114 0)
(-0.0364462 0.00219126 0)
(-0.0383596 0.000827501 0)
(-0.0384804 -0.000615868 0)
(-0.036781 -0.0020287 0)
(-0.0333761 -0.00329263 0)
(-0.0285302 -0.00428149 0)
(-0.022661 -0.00486617 0)
(-0.0163303 -0.00492667 0)
(-0.01021 -0.00437476 0)
(-0.00501696 -0.00318971 0)
(-0.00146075 -0.00150185 0)
(-8.97286e-05 8.97094e-05 0)
(-0.000479988 0.00105975 0)
(-0.00321394 0.00500595 0)
(-0.00899554 0.00868744 0)
(-0.0168007 0.0112255 0)
(-0.0256616 0.0123932 0)
(-0.0346975 0.0122244 0)
(-0.0430769 0.0108783 0)
(-0.0500814 0.00857445 0)
(-0.0551456 0.00555616 0)
(-0.0578716 0.00207818 0)
(-0.0580382 -0.00159421 0)
(-0.0556095 -0.00518148 0)
(-0.0507439 -0.00838779 0)
(-0.0438026 -0.0109053 0)
(-0.0353506 -0.0124293 0)
(-0.0261426 -0.0126902 0)
(-0.0170728 -0.011507 0)
(-0.00909086 -0.00886479 0)
(-0.003213 -0.00505048 0)
(-0.000467514 -0.00102895 0)
(-0.000805042 0.00311373 0)
(-0.00480278 0.0104543 0)
(-0.0127417 0.016727 0)
(-0.0230556 0.020908 0)
(-0.0344666 0.0227101 0)
(-0.0459124 0.0222047 0)
(-0.0564131 0.0196598 0)
(-0.0651306 0.0154474 0)
(-0.0714091 0.00998733 0)
(-0.0747886 0.00372451 0)
(-0.075012 -0.0028757 0)
(-0.0720344 -0.0093238 0)
(-0.0660337 -0.0151046 0)
(-0.0574204 -0.019686 0)
(-0.0468435 -0.0225461 0)
(-0.0351805 -0.0232263 0)
(-0.0234869 -0.0214164 0)
(-0.0129162 -0.0170692 0)
(-0.00482083 -0.0105656 0)
(-0.000791209 -0.00307494 0)
(-0.00108134 0.00596635 0)
(-0.00623175 0.0176551 0)
(-0.0161911 0.0269906 0)
(-0.0288388 0.0329585 0)
(-0.0425703 0.0353164 0)
(-0.056149 0.0342415 0)
(-0.0684789 0.0301567 0)
(-0.0786451 0.0236184 0)
(-0.0859442 0.0152469 0)
(-0.0898863 0.00569582 0)
(-0.0901948 -0.00435324 0)
(-0.0868128 -0.0141848 0)
(-0.079915 -0.0230458 0)
(-0.069923 -0.0301562 0)
(-0.0575225 -0.0347447 0)
(-0.0436682 -0.0361204 0)
(-0.0295473 -0.0337863 0)
(-0.0165173 -0.0275856 0)
(-0.00629776 -0.0178885 0)
(-0.00107101 -0.00593024 0)
(-0.00133209 0.00953619 0)
(-0.00756055 0.0264963 0)
(-0.0194263 0.0393581 0)
(-0.034257 0.0472313 0)
(-0.0501143 0.0500314 0)
(-0.0655944 0.0481303 0)
(-0.0795111 0.0421675 0)
(-0.0909089 0.0329227 0)
(-0.0990736 0.0212371 0)
(-0.103513 0.00798124 0)
(-0.103945 -0.00594625 0)
(-0.100298 -0.0196049 0)
(-0.0927204 -0.0320004 0)
(-0.0816103 -0.0420904 0)
(-0.0676463 -0.0488228 0)
(-0.05182 -0.0512205 0)
(-0.0354251 -0.0485198 0)
(-0.0200236 -0.0403505 0)
(-0.00772743 -0.026955 0)
(-0.0013362 -0.00953422 0)
(-0.00157845 0.0137849 0)
(-0.00885161 0.0368998 0)
(-0.0225365 0.0537157 0)
(-0.0393992 0.0635688 0)
(-0.0571661 0.0666552 0)
(-0.0742841 0.0636468 0)
(-0.0895108 0.0554743 0)
(-0.101893 0.0431841 0)
(-0.110745 0.0278554 0)
(-0.115605 0.0105723 0)
(-0.116202 -0.00756417 0)
(-0.112444 -0.0254068 0)
(-0.104434 -0.0417326 0)
(-0.0925082 -0.0552341 0)
(-0.0772876 -0.0645497 0)
(-0.0597504 -0.0683536 0)
(-0.0412583 -0.0655161 0)
(-0.0235649 -0.0553246 0)
(-0.00919534 -0.0377564 0)
(-0.00161426 -0.0138833 0)
(-0.00183836 0.0187101 0)
(-0.0101569 0.0488196 0)
(-0.0255835 0.0699449 0)
(-0.0442896 0.0817694 0)
(-0.0636695 0.0849161 0)
(-0.0820562 0.0804824 0)
(-0.0982042 0.069777 0)
(-0.111221 0.0541582 0)
(-0.120504 0.0349525 0)
(-0.12566 0.0134417 0)
(-0.126451 -0.00910392 0)
(-0.122767 -0.0313688 0)
(-0.114645 -0.0519339 0)
(-0.10231 -0.06924 0)
(-0.0862654 -0.0815965 0)
(-0.0674038 -0.0872633 0)
(-0.047089 -0.0846275 0)
(-0.0272274 -0.072472 0)
(-0.0107715 -0.0503325 0)
(-0.00192909 -0.0190224 0)
(-0.00212871 0.0243386 0)
(-0.0115171 0.0622289 0)
(-0.0285882 0.0878973 0)
(-0.0488582 0.101546 0)
(-0.0694021 0.104415 0)
(-0.0885014 0.0981831 0)
(-0.104991 0.0846332 0)
(-0.118121 0.0654791 0)
(-0.127443 0.0422933 0)
(-0.132686 0.0165206 0)
(-0.133674 -0.0104536 0)
(-0.130288 -0.0372078 0)
(-0.122473 -0.0621852 0)
(-0.110297 -0.0836125 0)
(-0.0940652 -0.0994692 0)
(-0.0744826 -0.107541 0)
(-0.0528097 -0.1056 0)
(-0.0310255 -0.091718 0)
(-0.0125045 -0.0647474 0)
(-0.00230236 -0.0250349 0)
(-0.00247033 0.0307224 0)
(-0.0129689 0.0770968 0)
(-0.031524 0.107345 0)
(-0.0529114 0.122452 0)
(-0.0739239 0.124543 0)
(-0.0928979 0.116063 0)
(-0.108872 0.0993807 0)
(-0.121351 0.0765968 0)
(-0.130131 0.0495095 0)
(-0.135129 0.0196701 0)
(-0.136271 -0.0114999 0)
(-0.133441 -0.0425638 0)
(-0.126477 -0.0719157 0)
(-0.115238 -0.0976407 0)
(-0.0997378 -0.117419 0)
(-0.0803601 -0.128525 0)
(-0.058103 -0.127972 0)
(-0.0348744 -0.112872 0)
(-0.0144192 -0.0810459 0)
(-0.0027568 -0.0320323 0)
(-0.0028962 0.0379445 0)
(-0.0145553 0.0933604 0)
(-0.034304 0.127907 0)
(-0.0560826 0.143786 0)
(-0.0764954 0.14437 0)
(-0.0941104 0.133109 0)
(-0.108344 0.113057 0)
(-0.119102 0.0867143 0)
(-0.126526 0.056055 0)
(-0.130793 0.0226522 0)
(-0.131976 -0.0121424 0)
(-0.129983 -0.0469947 0)
(-0.124543 -0.0803733 0)
(-0.115261 -0.110336 0)
(-0.101765 -0.134347 0)
(-0.0839572 -0.149171 0)
(-0.0623521 -0.150945 0)
(-0.038548 -0.135515 0)
(-0.0165136 -0.0991935 0)
(-0.0033213 -0.0401463 0)
(-0.00346407 0.0461382 0)
(-0.0163339 0.110884 0)
(-0.0367383 0.148942 0)
(-0.0577259 0.164441 0)
(-0.0759282 0.162513 0)
(-0.0904268 0.14787 0)
(-0.101251 0.124325 0)
(-0.108868 0.0947405 0)
(-0.11387 0.0611744 0)
(-0.116752 0.0251054 0)
(-0.117777 -0.0123124 0)
(-0.116903 -0.0499872 0)
(-0.113766 -0.0866152 0)
(-0.107705 -0.12039 0)
(-0.0978845 -0.148707 0)
(-0.0835633 -0.167912 0)
(-0.0644931 -0.1732 0)
(-0.0415966 -0.158838 0)
(-0.0187446 -0.118986 0)
(-0.00403774 -0.0495277 0)
(-0.00427365 0.0555251 0)
(-0.0183654 0.129379 0)
(-0.0384122 0.169361 0)
(-0.0566891 0.182711 0)
(-0.0703083 0.176977 0)
(-0.0792909 0.158365 0)
(-0.0845611 0.131433 0)
(-0.0872943 0.0992828 0)
(-0.0885955 0.0639059 0)
(-0.0893013 0.026541 0)
(-0.0898792 -0.011993 0)
(-0.0903723 -0.0509895 0)
(-0.0903628 -0.0895382 0)
(-0.0889611 -0.12617 0)
(-0.084866 -0.158446 0)
(-0.0765698 -0.182503 0)
(-0.0627633 -0.192672 0)
(-0.0431828 -0.181397 0)
(-0.0209829 -0.139901 0)
(-0.00496705 -0.060345 0)
(-0.00547596 0.0664373 0)
(-0.0206236 0.148178 0)
(-0.0383713 0.187273 0)
(-0.0508408 0.195973 0)
(-0.0564985 0.184967 0)
(-0.056879 0.162022 0)
(-0.0540624 0.132244 0)
(-0.0499932 0.0987168 0)
(-0.0462504 0.0631478 0)
(-0.0439541 0.0263763 0)
(-0.0437448 -0.0112343 0)
(-0.0457684 -0.0494747 0)
(-0.0496331 -0.0879713 0)
(-0.0543421 -0.125806 0)
(-0.0582424 -0.161009 0)
(-0.059079 -0.18989 0)
(-0.0542633 -0.206245 0)
(-0.0417369 -0.200702 0)
(-0.0228745 -0.160773 0)
(-0.00617748 -0.0727361 0)
(-0.00721549 0.07924 0)
(-0.0226427 0.16566 0)
(-0.0343385 0.199303 0)
(-0.0361133 0.200241 0)
(-0.0292777 0.182738 0)
(-0.0174679 0.155752 0)
(-0.0039876 0.124421 0)
(0.00860869 0.0913954 0)
(0.0184882 0.0578304 0)
(0.0244332 0.0240298 0)
(0.0257361 -0.0101555 0)
(0.0221535 -0.0450455 0)
(0.0139431 -0.0808669 0)
(0.00198846 -0.117413 0)
(-0.0120085 -0.153514 0)
(-0.0253308 -0.186197 0)
(-0.0341808 -0.209425 0)
(-0.0342139 -0.21258 0)
(-0.0234335 -0.179137 0)
(-0.00765296 -0.0866208 0)
(-0.00929342 0.0945086 0)
(-0.02241 0.178562 0)
(-0.0208916 0.19993 0)
(-0.00468328 0.190021 0)
(0.0200168 0.165909 0)
(0.0473789 0.136496 0)
(0.0733447 0.106026 0)
(0.0952997 0.0761711 0)
(0.111627 0.0473015 0)
(0.121343 0.0191406 0)
(0.12386 -0.00891133 0)
(0.118879 -0.0376022 0)
(0.106408 -0.0676759 0)
(0.086913 -0.0996523 0)
(0.0616348 -0.133398 0)
(0.0330693 -0.167269 0)
(0.00553222 -0.196511 0)
(-0.014539 -0.21079 0)
(-0.019945 -0.19064 0)
(-0.00891666 -0.101759 0)
(-0.00977107 0.113831 0)
(-0.0133444 0.181307 0)
(0.0142276 0.181421 0)
(0.0579059 0.15923 0)
(0.105122 0.130907 0)
(0.149429 0.102721 0)
(0.187494 0.076799 0)
(0.217678 0.0533863 0)
(0.239263 0.0320162 0)
(0.251915 0.0119731 0)
(0.255388 -0.00756981 0)
(0.2494 -0.0275262 0)
(0.233633 -0.0488846 0)
(0.20784 -0.0726639 0)
(0.172175 -0.099716 0)
(0.127831 -0.130127 0)
(0.077985 -0.161739 0)
(0.0292201 -0.187309 0)
(-0.00527 -0.188532 0)
(-0.00765566 -0.118263 0)
(0.00111308 0.128886 0)
(0.0243974 0.154781 0)
(0.0970237 0.128676 0)
(0.176281 0.0999008 0)
(0.24581 0.0751429 0)
(0.303301 0.0548953 0)
(0.348784 0.0385142 0)
(0.382859 0.0250336 0)
(0.406316 0.0135761 0)
(0.419754 0.00341063 0)
(0.423402 -0.00611991 0)
(0.417074 -0.0156827 0)
(0.400148 -0.0260555 0)
(0.371559 -0.0382091 0)
(0.329941 -0.0533753 0)
(0.274062 -0.072961 0)
(0.203407 -0.0979663 0)
(0.119863 -0.127454 0)
(0.0392925 -0.152812 0)
(0.00569623 -0.125429 0)
(0.0699974 0.0606642 0)
(0.153723 0.0312718 0)
(0.282687 0.00833696 0)
(0.389952 -0.00102185 0)
(0.46761 -0.00480794 0)
(0.524472 -0.00643186 0)
(0.566063 -0.00712063 0)
(0.595544 -0.00730024 0)
(0.615029 -0.00707309 0)
(0.625804 -0.00642347 0)
(0.62845 -0.00530481 0)
(0.622901 -0.00367801 0)
(0.608425 -0.00155421 0)
(0.583502 0.000961761 0)
(0.545618 0.00358319 0)
(0.49104 0.00563001 0)
(0.413792 0.00552798 0)
(0.304514 -0.000300859 0)
(0.168986 -0.01889 0)
(0.0722289 -0.0458448 0)
(0.397754 -0.21081 0)
(0.554081 -0.189748 0)
(0.67675 -0.136328 0)
(0.751717 -0.0984572 0)
(0.795451 -0.0722502 0)
(0.823602 -0.0537654 0)
(0.842655 -0.0403874 0)
(0.855449 -0.0301136 0)
(0.863538 -0.0215083 0)
(0.867771 -0.013541 0)
(0.868523 -0.00540067 0)
(0.865788 0.00364009 0)
(0.859169 0.0143531 0)
(0.847751 0.0276948 0)
(0.829806 0.0450271 0)
(0.802151 0.0684287 0)
(0.757976 0.101022 0)
(0.680931 0.14774 0)
(0.549245 0.212829 0)
(0.36767 0.232645 0)
)
;

boundaryField
{
    movingWall
    {
        type            fixedValue;
        value           uniform (1 0 0);
    }
    fixedWalls
    {
        type            noSlip;
    }
    frontAndBack
    {
        type            empty;
    }
}


// ************************************************************************* //
