/*--------------------------------*- C++ -*----------------------------------*\
| =========                 |                                                 |
| \\      /  F ield         | OpenFOAM: The Open Source CFD Toolbox           |
|  \\    /   O peration     | Version:  v2012                                 |
|   \\  /    A nd           | Website:  www.openfoam.com                      |
|    \\/     M anipulation  |                                                 |
\*---------------------------------------------------------------------------*/
FoamFile
{
    version     2.0;
    format      ascii;
    class       volScalarField;
    location    "0.1";
    object      p;
}
// * * * * * * * * * * * * * * * * * * * * * * * * * * * * * * * * * * * * * //

dimensions      [0 2 -2 0 0 0 0];


internalField   nonuniform List<scalar> 
400
(
-0.0397535
-0.0445445
-0.0500918
-0.0539714
-0.0548439
-0.0521542
-0.0459151
-0.0365313
-0.0246716
-0.0111847
0.00295994
0.0167258
0.0290672
0.0390048
0.0457248
0.0487096
0.0479051
0.0439147
0.0381997
0.0333144
-0.035004
-0.0399287
-0.0442178
-0.0467371
-0.0468768
-0.0442488
-0.0388382
-0.0309381
-0.02106
-0.00987157
0.00185127
0.0132734
0.0235553
0.0319203
0.0377363
0.040615
0.0405364
0.0379269
0.0334954
0.0284824
-0.0291329
-0.0358948
-0.0405107
-0.0427572
-0.0427162
-0.0401997
-0.0352462
-0.0281327
-0.0193023
-0.00932454
0.00113657
0.0113607
0.0206176
0.0282235
0.0336071
0.0363884
0.0364869
0.0341259
0.0293241
0.0224238
-0.0242398
-0.0334482
-0.0391446
-0.041695
-0.0417504
-0.0393067
-0.0344883
-0.0276079
-0.0190975
-0.0094863
0.000613599
0.010533
0.0195807
0.027089
0.0324668
0.0352681
0.0353046
0.0326095
0.0266431
0.0171957
-0.0216803
-0.0333639
-0.0402946
-0.0432677
-0.0434146
-0.0408919
-0.0359146
-0.0288494
-0.0201421
-0.0103108
5.39205e-05
0.0103
0.0197379
0.0276746
0.0334566
0.0365329
0.0365847
0.0334656
0.0261612
0.0140789
-0.022447
-0.0365216
-0.0446536
-0.047981
-0.0480618
-0.0451994
-0.0397012
-0.031998
-0.0225652
-0.0119271
-0.000673289
0.0105388
0.0209949
0.0299465
0.0366438
0.040398
0.0407343
0.0373214
0.0287052
0.0139946
-0.0273983
-0.043773
-0.0529699
-0.0564431
-0.0561668
-0.0525943
-0.0461318
-0.0372822
-0.0265588
-0.0145012
-0.00170751
0.0111481
0.0233112
0.0339562
0.0422086
0.0472067
0.0482836
0.0448921
0.0351152
0.0177753
-0.0374293
-0.056013
-0.0660375
-0.0693005
-0.0682314
-0.0634572
-0.0554973
-0.0449339
-0.0323198
-0.0182078
-0.00320106
0.0120119
0.0266347
0.0397545
0.0503494
0.0573472
0.0598375
0.0569935
0.0463478
0.0263799
-0.0536037
-0.074282
-0.0847657
-0.0872822
-0.0848079
-0.0781935
-0.0680948
-0.0551796
-0.0400338
-0.0232088
-0.0052937
0.0130277
0.0309318
0.0474236
0.0613202
0.0713004
0.0761425
0.0746392
0.0636143
0.0410737
-0.0772764
-0.0998586
-0.110223
-0.111196
-0.106462
-0.0971758
-0.0841612
-0.0681736
-0.0498138
-0.0296012
-0.00807343
0.0141305
0.0361969
0.0570744
0.0754235
0.0896413
0.0981146
0.0991125
0.0885081
0.0636052
-0.110257
-0.134371
-0.143672
-0.141897
-0.133699
-0.120646
-0.103767
-0.0838942
-0.0616064
-0.0373389
-0.0115169
0.015331
0.0424672
0.0688416
0.0929922
0.113024
0.12685
0.132032
0.123151
0.0964255
-0.155085
-0.179954
-0.186591
-0.180218
-0.166838
-0.148572
-0.126671
-0.102009
-0.0750731
-0.0461335
-0.0154132
0.016766
0.049844
0.0828736
0.114355
0.142137
0.163605
0.175402
0.170365
0.143009
-0.215573
-0.239485
-0.240665
-0.226822
-0.205816
-0.18044
-0.152135
-0.121716
-0.089462
-0.0553548
-0.0192931
0.0187373
0.0584965
0.0992971
0.139762
0.177612
0.209719
0.231629
0.233918
0.208414
-0.298003
-0.317083
-0.307788
-0.282009
-0.249942
-0.215033
-0.178746
-0.141622
-0.103529
-0.0639874
-0.022415
0.0216986
0.0686159
0.118131
0.169257
0.219862
0.266498
0.303566
0.318976
0.300408
-0.413175
-0.418602
-0.389809
-0.345288
-0.297504
-0.250156
-0.204271
-0.159694
-0.115565
-0.0707123
-0.0238852
0.0260984
0.0802127
0.139017
0.202312
0.268634
0.334719
0.394156
0.432358
0.431097
-0.577596
-0.54946
-0.48584
-0.413313
-0.344338
-0.281714
-0.225134
-0.173034
-0.123379
-0.0740376
-0.0229218
0.0319741
0.0925281
0.16037
0.2366
0.32124
0.412193
0.503274
0.579588
0.616862
-0.819086
-0.711162
-0.587959
-0.477215
-0.382349
-0.303006
-0.236195
-0.17793
-0.124491
-0.0725893
-0.0192164
0.0385156
0.103483
0.178632
0.266926
0.37095
0.491234
0.623859
0.761505
0.882116
-1.23856
-0.931463
-0.699817
-0.536126
-0.410284
-0.313364
-0.237581
-0.175143
-0.120053
-0.0677266
-0.0142563
0.0441227
0.111298
0.191738
0.290957
0.415652
0.571445
0.761565
1.00704
1.3173
-2.07429
-1.28815
-0.846307
-0.60542
-0.44175
-0.325576
-0.241046
-0.175172
-0.119185
-0.0670393
-0.0139298
0.0445412
0.113272
0.198312
0.308276
0.455867
0.656913
0.935369
1.38676
2.13025
-2.63666
-1.28199
-0.731189
-0.493102
-0.348244
-0.252244
-0.185777
-0.13584
-0.0944467
-0.0563874
-0.0177027
0.0251776
0.0761102
0.140195
0.225226
0.344544
0.520982
0.803472
1.37536
2.60133
)
;

boundaryField
{
    movingWall
    {
        type            fixedValue;
        value           uniform 0;
    }
    fixedWalls
    {
        type            zeroGradient;
    }
    frontAndBack
    {
        type            empty;
    }
}


// ************************************************************************* //
