/*--------------------------------*- C++ -*----------------------------------*\
| =========                 |                                                 |
| \\      /  F ield         | OpenFOAM: The Open Source CFD Toolbox           |
|  \\    /   O peration     | Version:  v2012                                 |
|   \\  /    A nd           | Website:  www.openfoam.com                      |
|    \\/     M anipulation  |                                                 |
\*---------------------------------------------------------------------------*/
FoamFile
{
    version     2.0;
    format      ascii;
    class       surfaceScalarField;
    location    "0.1";
    object      phi;
}
// * * * * * * * * * * * * * * * * * * * * * * * * * * * * * * * * * * * * * //

dimensions      [0 3 -1 0 0 0 0];
oriented        oriented;


internalField   nonuniform List<scalar> 
760
(
9.79893e-09
-9.79904e-09
-2.35412e-08
3.33416e-08
-1.02018e-07
7.84767e-08
-2.11178e-07
1.0916e-07
-3.34713e-07
1.23534e-07
-4.57667e-07
1.22955e-07
-5.67449e-07
1.09783e-07
-6.54139e-07
8.66902e-08
-7.10471e-07
5.63311e-08
-7.31773e-07
2.13015e-08
-7.15998e-07
-1.57746e-08
-6.63872e-07
-5.21267e-08
-5.79123e-07
-8.47498e-08
-4.68735e-07
-1.10389e-07
-3.43103e-07
-1.25633e-07
-2.1591e-07
-1.27192e-07
-1.03454e-07
-1.12457e-07
-2.31086e-08
-8.03451e-08
1.04132e-08
-3.35222e-08
1.04123e-08
-3.17282e-08
2.19296e-08
-1.56683e-07
1.58297e-07
-3.67961e-07
2.89758e-07
-6.39154e-07
3.80356e-07
-9.37931e-07
4.22312e-07
-1.23239e-06
4.17417e-07
-1.4943e-06
3.71695e-07
-1.70064e-06
2.93028e-07
-1.83424e-06
1.89928e-07
-1.88407e-06
7.11339e-08
-1.84551e-06
-5.43352e-08
-1.72065e-06
-1.76988e-07
-1.51868e-06
-2.86722e-07
-1.25616e-06
-3.72913e-07
-9.56902e-07
-4.24887e-07
-6.51121e-07
-4.32973e-07
-3.73191e-07
-3.90386e-07
-1.57512e-07
-2.96024e-07
-3.12222e-08
-1.59813e-07
-2.08097e-08
-7.91266e-08
1.01058e-07
-2.99545e-07
3.78715e-07
-6.3344e-07
6.23654e-07
-1.04171e-06
7.8863e-07
-1.48063e-06
8.6123e-07
-1.90748e-06
8.44273e-07
-2.28426e-06
7.4847e-07
-2.5797e-06
5.88469e-07
-2.77037e-06
3.806e-07
-2.84122e-06
1.41982e-07
-2.78598e-06
-1.09577e-07
-2.6076e-06
-3.55367e-07
-2.31869e-06
-5.75635e-07
-1.94174e-06
-7.49861e-07
-1.50887e-06
-8.57757e-07
-1.06052e-06
-8.81324e-07
-6.42639e-07
-8.08268e-07
-3.01903e-07
-6.36762e-07
-7.8797e-08
-3.82919e-07
-9.96061e-08
-1.21014e-07
2.22073e-07
-4.31613e-07
6.89313e-07
-8.80266e-07
1.07231e-06
-1.41241e-06
1.32077e-06
-1.97319e-06
1.42202e-06
-2.51141e-06
1.38249e-06
-2.98239e-06
1.21945e-06
-3.34974e-06
9.55818e-07
-3.58629e-06
6.17157e-07
-3.6746e-06
2.30291e-07
-3.60731e-06
-1.76876e-07
-3.3876e-06
-5.75076e-07
-3.02976e-06
-9.33477e-07
-2.55954e-06
-1.22008e-06
-2.0141e-06
-1.4032e-06
-1.44093e-06
-1.45449e-06
-8.95369e-07
-1.35383e-06
-4.3637e-07
-1.09576e-06
-1.20991e-07
-6.98298e-07
-2.20597e-07
-1.58156e-07
3.80231e-07
-5.52859e-07
1.08402e-06
-1.10935e-06
1.62879e-06
-1.75623e-06
1.96765e-06
-2.42721e-06
2.093e-06
-3.06351e-06
2.01879e-06
-3.6156e-06
1.77154e-06
-4.04405e-06
1.38427e-06
-4.31978e-06
8.92881e-07
-4.4241e-06
3.34612e-07
-4.34888e-06
-2.52095e-07
-4.09694e-06
-8.27015e-07
-3.68276e-06
-1.34766e-06
-3.13327e-06
-1.76957e-06
-2.48843e-06
-2.04804e-06
-1.80099e-06
-2.14193e-06
-1.13495e-06
-2.01986e-06
-5.62441e-07
-1.66828e-06
-1.59117e-07
-1.10162e-06
-3.79715e-07
-1.92703e-07
5.72934e-07
-6.67124e-07
1.55844e-06
-1.32578e-06
2.28745e-06
-2.07983e-06
2.7217e-06
-2.85137e-06
2.86454e-06
-3.57486e-06
2.74228e-06
-4.1974e-06
2.39408e-06
-4.67826e-06
1.86513e-06
-4.98801e-06
1.20263e-06
-5.10777e-06
4.54368e-07
-5.02887e-06
-3.30994e-07
-4.75315e-06
-1.10273e-06
-4.29389e-06
-1.80691e-06
-3.6773e-06
-2.38616e-06
-2.94408e-06
-2.78125e-06
-2.15067e-06
-2.93534e-06
-1.36921e-06
-2.80133e-06
-6.85691e-07
-2.35179e-06
-1.9598e-07
-1.59133e-06
-5.75695e-07
-2.26607e-07
7.99541e-07
-7.78323e-07
2.11015e-06
-1.53415e-06
3.04327e-06
-2.38724e-06
3.57479e-06
-3.24838e-06
3.72569e-06
-4.04649e-06
3.54039e-06
-4.72716e-06
3.07475e-06
-5.25037e-06
2.38834e-06
-5.58812e-06
1.54038e-06
-5.72249e-06
5.88732e-07
-5.6446e-06
-4.08878e-07
-5.35473e-06
-1.3926e-06
-4.86349e-06
-2.29815e-06
-4.19418e-06
-3.05547e-06
-3.38584e-06
-3.58959e-06
-2.49641e-06
-3.82477e-06
-1.60496e-06
-3.69278e-06
-8.1162e-07
-3.14513e-06
-2.34182e-07
-2.16877e-06
-8.09876e-07
-2.61433e-07
1.06097e-06
-8.89319e-07
2.73804e-06
-1.73657e-06
3.89053e-06
-2.67752e-06
4.51574e-06
-3.61256e-06
4.66072e-06
-4.46719e-06
4.39502e-06
-5.18824e-06
3.79581e-06
-5.73919e-06
2.93929e-06
-6.09573e-06
1.89691e-06
-6.24242e-06
7.35427e-07
-6.17079e-06
-4.80513e-07
-5.87898e-06
-1.68441e-06
-5.3733e-06
-2.80383e-06
-4.67151e-06
-3.75727e-06
-3.80765e-06
-4.45346e-06
-2.8378e-06
-4.79461e-06
-1.84542e-06
-4.68516e-06
-9.44184e-07
-4.04637e-06
-2.75835e-07
-2.83712e-06
-1.08571e-06
-2.98429e-07
1.3594e-06
-1.00158e-06
3.44118e-06
-1.9316e-06
4.82055e-06
-2.94294e-06
5.52708e-06
-3.9275e-06
5.64528e-06
-4.81097e-06
5.27849e-06
-5.54549e-06
4.53033e-06
-6.10181e-06
3.4956e-06
-6.46239e-06
2.2575e-06
-6.61638e-06
8.89411e-07
-6.55655e-06
-5.40341e-07
-6.2786e-06
-1.96237e-06
-5.78274e-06
-3.29968e-06
-5.07796e-06
-4.46204e-06
-4.18883e-06
-5.34259e-06
-3.16448e-06
-5.81897e-06
-2.0882e-06
-5.76144e-06
-1.08497e-06
-5.0496e-06
-3.22501e-07
-3.59959e-06
-1.40821e-06
-3.38837e-07
1.69824e-06
-1.11523e-06
4.21757e-06
-2.11334e-06
5.81866e-06
-3.16697e-06
6.58071e-06
-4.16323e-06
6.64155e-06
-5.03365e-06
6.14891e-06
-5.74156e-06
5.23823e-06
-6.27e-06
4.02405e-06
-6.6121e-06
2.59959e-06
-6.76412e-06
1.04143e-06
-6.72145e-06
-5.83005e-07
-6.47725e-06
-2.20657e-06
-6.02396e-06
-3.75297e-06
-5.35819e-06
-5.12781e-06
-4.4894e-06
-6.21138e-06
-3.45247e-06
-6.8559e-06
-2.32309e-06
-6.89082e-06
-1.2325e-06
-6.14019e-06
-3.75286e-07
-4.4568e-06
-1.7835e-06
-3.84385e-07
2.08262e-06
-1.22907e-06
5.06226e-06
-2.26998e-06
6.85957e-06
-3.32107e-06
7.63179e-06
-4.27163e-06
7.59211e-06
-5.06779e-06
6.94507e-06
-5.69194e-06
5.86239e-06
-6.14563e-06
4.47774e-06
-6.43695e-06
2.8909e-06
-6.57219e-06
1.17668e-06
-6.55101e-06
-6.04188e-07
-6.36443e-06
-2.39315e-06
-5.99594e-06
-4.12146e-06
-5.42635e-06
-5.6974e-06
-4.64362e-06
-6.99411e-06
-3.6589e-06
-7.84062e-06
-2.52885e-06
-8.02088e-06
-1.38115e-06
-7.28788e-06
-4.34956e-07
-5.40299e-06
-2.21845e-06
-4.37938e-07
2.52056e-06
-1.33981e-06
5.96413e-06
-2.38011e-06
7.89987e-06
-3.35832e-06
8.61001e-06
-4.17875e-06
8.41253e-06
-4.81488e-06
7.5812e-06
-5.27812e-06
6.32562e-06
-5.59503e-06
4.79465e-06
-5.79273e-06
3.0886e-06
-5.89007e-06
1.27401e-06
-5.89262e-06
-6.01636e-07
-5.79038e-06
-2.49539e-06
-5.55789e-06
-4.35395e-06
-5.15798e-06
-6.09731e-06
-4.55115e-06
-7.60093e-06
-3.71376e-06
-8.67801e-06
-2.6674e-06
-9.06724e-06
-1.51879e-06
-8.4365e-06
-5.0197e-07
-6.41981e-06
-2.72042e-06
-5.04106e-07
3.02467e-06
-1.43886e-06
6.89888e-06
-2.40396e-06
8.86497e-06
-3.20093e-06
9.40698e-06
-3.77126e-06
8.98286e-06
-4.13336e-06
7.9433e-06
-4.33826e-06
6.53053e-06
-4.44282e-06
4.89922e-06
-4.49525e-06
3.14103e-06
-4.52789e-06
1.30664e-06
-4.55343e-06
-5.761e-07
-4.56262e-06
-2.48619e-06
-4.52312e-06
-4.39345e-06
-4.38053e-06
-6.2399e-06
-4.06478e-06
-7.91668e-06
-3.50696e-06
-9.23582e-06
-2.67338e-06
-9.90083e-06
-1.6216e-06
-9.48827e-06
-5.76047e-07
-7.46536e-06
-3.29647e-06
-5.88463e-07
3.61313e-06
-1.50242e-06
7.81284e-06
-2.26368e-06
9.62623e-06
-2.71595e-06
9.85925e-06
-2.87362e-06
9.14053e-06
-2.82057e-06
7.89025e-06
-2.65549e-06
6.36544e-06
-2.46598e-06
4.7097e-06
-2.3189e-06
2.99396e-06
-2.25781e-06
1.24556e-06
-2.3022e-06
-5.31715e-07
-2.44601e-06
-2.34238e-06
-2.65494e-06
-4.18452e-06
-2.86331e-06
-6.03152e-06
-2.97388e-06
-7.80612e-06
-2.86745e-06
-9.34225e-06
-2.43434e-06
-1.03339e-05
-1.64197e-06
-1.02806e-05
-6.53622e-07
-8.45371e-06
-3.95009e-06
-6.90447e-07
4.30358e-06
-1.46276e-06
8.58515e-06
-1.79931e-06
9.96279e-06
-1.66983e-06
9.72976e-06
-1.21081e-06
8.68151e-06
-5.87743e-07
7.26718e-06
5.53292e-08
5.72237e-06
6.09637e-07
4.1554e-06
9.99825e-07
2.60377e-06
1.17841e-06
1.06697e-06
1.12191e-06
-4.75214e-07
8.3061e-07
-2.05108e-06
3.32579e-07
-3.68649e-06
-3.08328e-07
-5.39062e-06
-9.82511e-07
-7.13194e-06
-1.5294e-06
-8.79536e-06
-1.75235e-06
-1.0111e-05
-1.47929e-06
-1.05537e-05
-7.18295e-07
-9.2147e-06
-4.66839e-06
-7.76141e-07
5.07972e-06
-1.1324e-06
8.9414e-06
-6.76067e-07
9.50645e-06
3.50991e-07
8.7027e-06
1.64571e-06
7.38679e-06
2.96907e-06
5.94382e-06
4.15689e-06
4.53456e-06
5.1049e-06
3.20738e-06
5.74931e-06
1.95936e-06
6.05159e-06
7.64689e-07
5.98994e-06
-4.13557e-07
5.55703e-06
-1.61818e-06
4.76428e-06
-2.89374e-06
3.65339e-06
-4.27973e-06
2.31617e-06
-5.79472e-06
9.20389e-07
-7.39957e-06
-2.70315e-07
-8.92028e-06
-9.10859e-07
-9.91316e-06
-7.11963e-07
-9.4136e-06
-5.38035e-06
-6.90651e-07
5.77037e-06
-2.29269e-08
8.27368e-06
1.78408e-06
7.69945e-06
4.05273e-06
6.43405e-06
6.33395e-06
5.10558e-06
8.38333e-06
3.89444e-06
1.00782e-05
2.83972e-06
1.13623e-05
1.92328e-06
1.22108e-05
1.11087e-06
1.26098e-05
3.65687e-07
1.25464e-05
-3.50225e-07
1.20058e-05
-1.07758e-06
1.09734e-05
-1.86134e-06
9.44585e-06
-2.75215e-06
7.45396e-06
-3.80283e-06
5.10486e-06
-5.05047e-06
2.64676e-06
-6.46218e-06
5.53492e-07
-7.81989e-06
-4.49205e-07
-8.4109e-06
-5.82955e-06
1.83189e-07
5.58718e-06
3.04358e-06
5.41329e-06
6.87052e-06
3.87251e-06
1.05495e-05
2.75512e-06
1.37139e-05
1.94116e-06
1.62782e-05
1.33014e-06
1.82545e-05
8.63365e-07
1.9682e-05
4.95761e-07
2.05968e-05
1.9609e-07
2.10199e-05
-5.74069e-08
2.09524e-05
-2.82699e-07
2.03744e-05
-4.99602e-07
1.92436e-05
-7.30533e-07
1.74983e-05
-1.00681e-06
1.5069e-05
-1.37353e-06
1.19126e-05
-1.89409e-06
8.09598e-06
-2.64558e-06
3.9842e-06
-3.70811e-06
6.64658e-07
-5.09136e-06
-5.16489e-06
4.12642e-06
1.46076e-06
1.1133e-05
-1.59333e-06
1.70052e-05
-1.99966e-06
2.14764e-05
-1.71612e-06
2.48111e-05
-1.39351e-06
2.72605e-05
-1.11929e-06
2.90234e-05
-8.99502e-07
3.02368e-05
-7.17652e-07
3.09864e-05
-5.53518e-07
3.13184e-05
-3.89423e-07
3.12461e-05
-2.10321e-07
3.0749e-05
-2.538e-09
2.9772e-05
2.4649e-07
2.82139e-05
5.51253e-07
2.59142e-05
9.2616e-07
2.26388e-05
1.38133e-06
1.80947e-05
1.89855e-06
1.20175e-05
2.36911e-06
4.6811e-06
2.24499e-06
-4.83793e-07
2.14358e-05
3.1376e-05
3.59838e-05
3.87323e-05
4.04955e-05
4.16646e-05
4.24514e-05
4.29673e-05
4.32717e-05
4.33946e-05
4.33452e-05
4.31138e-05
4.26679e-05
4.19432e-05
4.0818e-05
3.90581e-05
3.61999e-05
3.12156e-05
2.08119e-05
)
;

boundaryField
{
    movingWall
    {
        type            calculated;
        value           nonuniform List<scalar> 
20
(
-1.99751e-05
-1.15335e-05
-6.60747e-06
-4.46462e-06
-3.15679e-06
-2.28837e-06
-1.68629e-06
-1.23352e-06
-8.57937e-07
-5.12374e-07
-1.60911e-07
2.28935e-07
6.92348e-07
1.27598e-06
2.05134e-06
3.14119e-06
4.75677e-06
7.35345e-06
1.26487e-05
2.03281e-05
)
;
    }
    fixedWalls
    {
        type            calculated;
        value           uniform 0;
    }
    frontAndBack
    {
        type            empty;
        value           nonuniform List<scalar> 0();
    }
}


// ************************************************************************* //
