/*--------------------------------*- C++ -*----------------------------------*\
| =========                 |                                                 |
| \\      /  F ield         | OpenFOAM: The Open Source CFD Toolbox           |
|  \\    /   O peration     | Version:  v2012                                 |
|   \\  /    A nd           | Website:  www.openfoam.com                      |
|    \\/     M anipulation  |                                                 |
\*---------------------------------------------------------------------------*/
FoamFile
{
    version     2.0;
    format      ascii;
    class       volVectorField;
    location    "0.1";
    object      U;
}
// * * * * * * * * * * * * * * * * * * * * * * * * * * * * * * * * * * * * * //

dimensions      [0 1 -1 0 0 0 0];


internalField   nonuniform List<vector> 
400
(
(0.000190206 -0.000187817 0)
(4.39942e-05 0.000125214 0)
(-0.00110528 0.000494602 0)
(-0.00304227 0.000746189 0)
(-0.00543256 0.00086556 0)
(-0.0079553 0.000869029 0)
(-0.0103312 0.000778587 0)
(-0.0123334 0.000616275 0)
(-0.0137897 0.000402195 0)
(-0.0145806 0.000154815 0)
(-0.0146384 -0.000107724 0)
(-0.0139492 -0.000366212 0)
(-0.0125567 -0.000599279 0)
(-0.0105675 -0.000782864 0)
(-0.00815599 -0.000890473 0)
(-0.00556542 -0.000894814 0)
(-0.00310112 -0.000771802 0)
(-0.00110992 -0.000507645 0)
(5.96165e-05 -0.000123876 0)
(0.000198531 0.000194795 0)
(-0.000100427 -6.49565e-05 0)
(-0.00144989 0.00147186 0)
(-0.00488817 0.00306876 0)
(-0.00986834 0.00417885 0)
(-0.0157221 0.00470459 0)
(-0.0217961 0.00467784 0)
(-0.0274812 0.00417749 0)
(-0.032259 0.00329967 0)
(-0.035725 0.0021438 0)
(-0.0375961 0.00080927 0)
(-0.0377146 -0.000602507 0)
(-0.0360535 -0.00198463 0)
(-0.0327241 -0.00322211 0)
(-0.0279836 -0.00419202 0)
(-0.0222384 -0.00476801 0)
(-0.0160364 -0.00483189 0)
(-0.010035 -0.00429583 0)
(-0.00493687 -0.00313739 0)
(-0.00144096 -0.00148184 0)
(-9.00998e-05 8.39006e-05 0)
(-0.000472565 0.00104586 0)
(-0.00315911 0.00492275 0)
(-0.00883667 0.00853245 0)
(-0.0164958 0.0110144 0)
(-0.0251844 0.0121497 0)
(-0.0340383 0.0119751 0)
(-0.0422437 0.0106497 0)
(-0.049099 0.00838979 0)
(-0.0540534 0.00543451 0)
(-0.05672 0.0020325 0)
(-0.0568838 -0.00155829 0)
(-0.0545097 -0.00506651 0)
(-0.0497516 -0.00820474 0)
(-0.0429603 -0.010673 0)
(-0.0346857 -0.0121731 0)
(-0.0256642 -0.0124395 0)
(-0.0167706 -0.0112914 0)
(-0.00893617 -0.00870969 0)
(-0.00316133 -0.0049704 0)
(-0.000461075 -0.00101786 0)
(-0.000791708 0.00306408 0)
(-0.00472073 0.0102742 0)
(-0.0125209 0.0164246 0)
(-0.0226491 0.0205132 0)
(-0.0338474 0.0222642 0)
(-0.0450725 0.0217534 0)
(-0.0553645 0.0192485 0)
(-0.0639041 0.0151168 0)
(-0.0700523 0.00977055 0)
(-0.0733612 0.00364391 0)
(-0.0735811 -0.00281056 0)
(-0.070668 -0.00911759 0)
(-0.0647942 -0.0147766 0)
(-0.0563591 -0.0192689 0)
(-0.0459945 -0.0220835 0)
(-0.0345575 -0.0227684 0)
(-0.0230817 -0.021014 0)
(-0.0126994 -0.0167663 0)
(-0.00474231 -0.0103906 0)
(-0.000779098 -0.00303029 0)
(-0.0010643 0.00586841 0)
(-0.00613265 0.0173532 0)
(-0.0159321 0.0265109 0)
(-0.0283712 0.0323492 0)
(-0.0418683 0.0346385 0)
(-0.0552067 0.0335616 0)
(-0.0673108 0.0295403 0)
(-0.0772855 0.0231247 0)
(-0.0844443 0.0149238 0)
(-0.0883099 0.00557581 0)
(-0.0886133 -0.0042563 0)
(-0.0852987 -0.0138778 0)
(-0.0785355 -0.0225566 0)
(-0.0687339 -0.0295322 0)
(-0.0565625 -0.0340486 0)
(-0.0429548 -0.0354246 0)
(-0.0290755 -0.0331646 0)
(-0.0162593 -0.0271034 0)
(-0.00620132 -0.017593 0)
(-0.0010552 -0.0058396 0)
(-0.00131383 0.00938374 0)
(-0.0074564 0.0260606 0)
(-0.0191575 0.0386876 0)
(-0.0337763 0.046395 0)
(-0.0493978 0.049111 0)
(-0.0646378 0.047213 0)
(-0.0783296 0.041339 0)
(-0.0895368 0.0322603 0)
(-0.0975609 0.0208035 0)
(-0.101923 0.00781904 0)
(-0.102347 -0.00581879 0)
(-0.098763 -0.0191965 0)
(-0.0913161 -0.0313472 0)
(-0.0803927 -0.0412537 0)
(-0.066656 -0.0478841 0)
(-0.0510775 -0.0502742 0)
(-0.0349287 -0.0476631 0)
(-0.0197488 -0.0396723 0)
(-0.00762317 -0.0265244 0)
(-0.0013187 -0.00939061 0)
(-0.00156136 0.0135784 0)
(-0.00875472 0.0363328 0)
(-0.0222874 0.0528599 0)
(-0.0389552 0.0625136 0)
(-0.056506 0.065502 0)
(-0.073404 0.0625022 0)
(-0.0884242 0.0544425 0)
(-0.10063 0.0423593 0)
(-0.109351 0.027314 0)
(-0.114136 0.0103666 0)
(-0.114721 -0.00741144 0)
(-0.111016 -0.0249056 0)
(-0.103122 -0.0409261 0)
(-0.0913634 -0.0541959 0)
(-0.07635 -0.0633783 0)
(-0.0590419 -0.0671638 0)
(-0.0407805 -0.0644278 0)
(-0.0232981 -0.0544503 0)
(-0.00909318 -0.0371887 0)
(-0.0015969 -0.0136851 0)
(-0.00182458 0.0184564 0)
(-0.0100786 0.0481383 0)
(-0.0253819 0.0689279 0)
(-0.0439293 0.0805237 0)
(-0.0631323 0.08356 0)
(-0.0813375 0.0791389 0)
(-0.0973136 0.0685661 0)
(-0.110182 0.0531885 0)
(-0.119351 0.0343127 0)
(-0.12444 0.0131928 0)
(-0.125214 -0.00893493 0)
(-0.121568 -0.0307921 0)
(-0.113534 -0.0509979 0)
(-0.101334 -0.0680281 0)
(-0.0854595 -0.0802212 0)
(-0.0667894 -0.085857 0)
(-0.0466709 -0.0833302 0)
(-0.0269918 -0.0714182 0)
(-0.0106806 -0.0496378 0)
(-0.00191344 -0.0187732 0)
(-0.00212004 0.0240503 0)
(-0.0114669 0.0614631 0)
(-0.0284571 0.08676 0)
(-0.0486208 0.100156 0)
(-0.0690435 0.102904 0)
(-0.0880155 0.0966853 0)
(-0.104381 0.083281 0)
(-0.117402 0.0643926 0)
(-0.126636 0.0415708 0)
(-0.131823 0.0162304 0)
(-0.13279 -0.0102801 0)
(-0.129421 -0.0365803 0)
(-0.121661 -0.0611548 0)
(-0.109575 -0.0822694 0)
(-0.0934611 -0.097936 0)
(-0.0740159 -0.105964 0)
(-0.0524878 -0.104133 0)
(-0.0308417 -0.0905167 0)
(-0.0124325 -0.0639466 0)
(-0.00228972 -0.0247426 0)
(-0.00246804 0.0304164 0)
(-0.0129533 0.0762861 0)
(-0.0314792 0.106141 0)
(-0.052824 0.12098 0)
(-0.0737826 0.122939 0)
(-0.092695 0.114469 0)
(-0.108604 0.0979365 0)
(-0.121021 0.0754302 0)
(-0.129747 0.0487258 0)
(-0.134703 0.0193432 0)
(-0.135821 -0.011335 0)
(-0.132986 -0.041915 0)
(-0.126038 -0.0708349 0)
(-0.114836 -0.0962207 0)
(-0.0993912 -0.115788 0)
(-0.080084 -0.126836 0)
(-0.0579067 -0.126393 0)
(-0.034759 -0.111568 0)
(-0.0143725 -0.0801695 0)
(-0.0027482 -0.0317084 0)
(-0.00290082 0.0376402 0)
(-0.0145771 0.0925502 0)
(-0.0343522 0.126698 0)
(-0.0561565 0.1423 0)
(-0.0765882 0.142743 0)
(-0.0942129 0.131485 0)
(-0.108447 0.111578 0)
(-0.119195 0.0855111 0)
(-0.126603 0.0552367 0)
(-0.130848 0.0222961 0)
(-0.132007 -0.0119984 0)
(-0.129988 -0.0463562 0)
(-0.124524 -0.0792904 0)
(-0.115222 -0.108901 0)
(-0.101713 -0.132687 0)
(-0.0839013 -0.147443 0)
(-0.0623023 -0.149319 0)
(-0.0385129 -0.134164 0)
(-0.0164969 -0.098279 0)
(-0.00331752 -0.0398053 0)
(-0.00347525 0.0458554 0)
(-0.0163911 0.11012 0)
(-0.036875 0.14779 0)
(-0.0579541 0.163013 0)
(-0.0762463 0.160937 0)
(-0.0908253 0.146286 0)
(-0.101715 0.122872 0)
(-0.109379 0.0935484 0)
(-0.114406 0.0603525 0)
(-0.11729 0.0247316 0)
(-0.118293 -0.0121984 0)
(-0.117377 -0.0493887 0)
(-0.114179 -0.0855786 0)
(-0.108043 -0.119003 0)
(-0.0981417 -0.147093 0)
(-0.0837408 -0.166221 0)
(-0.0646001 -0.1716 0)
(-0.0416484 -0.157501 0)
(-0.0187606 -0.118076 0)
(-0.00403931 -0.0491857 0)
(-0.00429008 0.0552813 0)
(-0.0184513 0.128702 0)
(-0.0386217 0.168323 0)
(-0.0570458 0.181406 0)
(-0.0708168 0.175521 0)
(-0.0799435 0.156886 0)
(-0.0853399 0.130065 0)
(-0.0881731 0.0981506 0)
(-0.089541 0.063114 0)
(-0.0902754 0.0261652 0)
(-0.090841 -0.0119133 0)
(-0.091281 -0.0504553 0)
(-0.0911809 -0.0885913 0)
(-0.0896579 -0.124891 0)
(-0.0854209 -0.156947 0)
(-0.076975 -0.180925 0)
(-0.0630251 -0.191171 0)
(-0.0433214 -0.180137 0)
(-0.0210321 -0.139039 0)
(-0.00497421 -0.0600195 0)
(-0.00549541 0.0662452 0)
(-0.0207273 0.147619 0)
(-0.0386274 0.186391 0)
(-0.0512833 0.194842 0)
(-0.0571391 0.183687 0)
(-0.0577142 0.160708 0)
(-0.0550748 0.131016 0)
(-0.0511528 0.097691 0)
(-0.0475161 0.0624207 0)
(-0.0452762 0.0260181 0)
(-0.0450682 -0.0111865 0)
(-0.0470362 -0.0490205 0)
(-0.0507914 -0.0871473 0)
(-0.0553445 -0.124683 0)
(-0.059055 -0.159687 0)
(-0.0596846 -0.188492 0)
(-0.0546639 -0.20491 0)
(-0.041955 -0.199578 0)
(-0.0229549 -0.160001 0)
(-0.00619018 -0.0724443 0)
(-0.00723498 0.0791051 0)
(-0.0227495 0.165233 0)
(-0.0346077 0.198602 0)
(-0.0365868 0.199318 0)
(-0.0299753 0.181674 0)
(-0.0183929 0.154646 0)
(-0.00512637 0.123378 0)
(0.00728602 0.0905161 0)
(0.0170263 0.0572005 0)
(0.0228887 0.023711 0)
(0.0241738 -0.0101309 0)
(0.0206416 -0.0446771 0)
(0.0125478 -0.080186 0)
(0.000767864 -0.116479 0)
(-0.0130097 -0.152412 0)
(-0.0260869 -0.18503 0)
(-0.0346886 -0.20831 0)
(-0.0344952 -0.21164 0)
(-0.0235399 -0.178492 0)
(-0.00767066 -0.0863781 0)
(-0.00930969 0.0944279 0)
(-0.0225045 0.178266 0)
(-0.0211378 0.199414 0)
(-0.00512894 0.189318 0)
(0.0193433 0.165081 0)
(0.0464659 0.135623 0)
(0.0721995 0.105195 0)
(0.0939487 0.0754678 0)
(0.110114 0.0467954 0)
(0.119728 0.0188821 0)
(0.122211 -0.00889694 0)
(0.117269 -0.0373156 0)
(0.10491 -0.0671436 0)
(0.0855923 -0.0989233 0)
(0.060542 -0.13254 0)
(0.0322358 -0.166364 0)
(0.00496596 -0.195649 0)
(-0.0148572 -0.210067 0)
(-0.0200678 -0.190148 0)
(-0.00893794 -0.101577 0)
(-0.00978108 0.113794 0)
(-0.0134124 0.181123 0)
(0.0140362 0.181072 0)
(0.0575406 0.158736 0)
(0.104546 0.130313 0)
(0.148625 0.102088 0)
(0.18646 0.0761949 0)
(0.216434 0.052875 0)
(0.237851 0.0316507 0)
(0.250391 0.0117904 0)
(0.253819 -0.0075525 0)
(0.247859 -0.0273115 0)
(0.23219 -0.0484946 0)
(0.206562 -0.0721368 0)
(0.171111 -0.0991028 0)
(0.127014 -0.129487 0)
(0.0774254 -0.161138 0)
(0.0289023 -0.186813 0)
(-0.00539455 -0.188203 0)
(-0.00767782 -0.118149 0)
(0.00111183 0.128874 0)
(0.0243661 0.154676 0)
(0.0969088 0.12846 0)
(0.176032 0.0995865 0)
(0.245388 0.0747607 0)
(0.30268 0.054488 0)
(0.34796 0.0381282 0)
(0.381846 0.0247119 0)
(0.405149 0.0133535 0)
(0.41848 0.00330955 0)
(0.422081 -0.00608975 0)
(0.415772 -0.015526 0)
(0.398926 -0.0257905 0)
(0.370474 -0.0378635 0)
(0.329038 -0.0529845 0)
(0.273369 -0.0725645 0)
(0.202932 -0.0976054 0)
(0.119593 -0.127168 0)
(0.0391863 -0.152636 0)
(0.00567698 -0.125379 0)
(0.0700065 0.0606487 0)
(0.153732 0.0311955 0)
(0.282653 0.00819349 0)
(0.389832 -0.00122265 0)
(0.467368 -0.00504464 0)
(0.524086 -0.0066764 0)
(0.565524 -0.00734349 0)
(0.594864 -0.00747501 0)
(0.614231 -0.00717991 0)
(0.624926 -0.00645127 0)
(0.627537 -0.00525139 0)
(0.622 -0.00355086 0)
(0.607582 -0.00136779 0)
(0.582758 0.00118622 0)
(0.545005 0.00382119 0)
(0.490575 0.00585626 0)
(0.41348 0.00571873 0)
(0.304342 -0.000165608 0)
(0.168923 -0.0188233 0)
(0.07222 -0.0458409 0)
(0.397766 -0.210846 0)
(0.554105 -0.189828 0)
(0.676764 -0.13645 0)
(0.7517 -0.0986117 0)
(0.795385 -0.0724221 0)
(0.823475 -0.0539347 0)
(0.842462 -0.0405334 0)
(0.855196 -0.0302181 0)
(0.863235 -0.0215587 0)
(0.867435 -0.013531 0)
(0.868172 -0.00533195 0)
(0.865444 0.00375933 0)
(0.858851 0.0145091 0)
(0.847474 0.0278698 0)
(0.829583 0.0452016 0)
(0.801989 0.0685839 0)
(0.757874 0.101142 0)
(0.680882 0.147815 0)
(0.549234 0.212856 0)
(0.367672 0.232637 0)
)
;

boundaryField
{
    movingWall
    {
        type            fixedValue;
        value           uniform (1 0 0);
    }
    fixedWalls
    {
        type            noSlip;
    }
    frontAndBack
    {
        type            empty;
    }
}


// ************************************************************************* //
