/*--------------------------------*- C++ -*----------------------------------*\
| =========                 |                                                 |
| \\      /  F ield         | OpenFOAM: The Open Source CFD Toolbox           |
|  \\    /   O peration     | Version:  v2012                                 |
|   \\  /    A nd           | Website:  www.openfoam.com                      |
|    \\/     M anipulation  |                                                 |
\*---------------------------------------------------------------------------*/
FoamFile
{
    version     2.0;
    format      ascii;
    class       surfaceScalarField;
    location    "0.7";
    object      phi;
}
// * * * * * * * * * * * * * * * * * * * * * * * * * * * * * * * * * * * * * //

dimensions      [0 3 -1 0 0 0 0];
oriented        oriented;


internalField   nonuniform List<scalar> 
760
(
1.00774e-08
-1.00774e-08
-2.37003e-08
3.37776e-08
-1.03476e-07
7.97757e-08
-2.14611e-07
1.11135e-07
-3.40516e-07
1.25905e-07
-4.6594e-07
1.25424e-07
-5.78012e-07
1.12071e-07
-6.66564e-07
8.85523e-08
-7.24134e-07
5.75701e-08
-7.45913e-07
2.17796e-08
-7.29792e-07
-1.6121e-08
-6.76515e-07
-5.32764e-08
-5.89923e-07
-8.65925e-08
-4.77195e-07
-1.12728e-07
-3.48998e-07
-1.28197e-07
-2.19339e-07
-1.2966e-07
-1.04848e-07
-1.1449e-07
-2.32022e-08
-8.16459e-08
1.07202e-08
-3.39222e-08
1.07203e-08
-3.21836e-08
2.21063e-08
-1.59286e-07
1.60879e-07
-3.74447e-07
2.94937e-07
-6.50885e-07
3.87573e-07
-9.55693e-07
4.30713e-07
-1.25632e-06
4.26052e-07
-1.52389e-06
3.79637e-07
-1.73479e-06
2.99452e-07
-1.87138e-06
1.94167e-07
-1.92234e-06
7.27323e-08
-1.88288e-06
-5.55785e-08
-1.75517e-06
-1.80987e-07
-1.54867e-06
-2.93094e-07
-1.2804e-06
-3.80996e-07
-9.7481e-07
-4.33785e-07
-6.62825e-07
-4.41645e-07
-3.79544e-07
-3.97771e-07
-1.59978e-07
-3.01212e-07
-3.1612e-08
-1.62288e-07
-2.08916e-08
-8.0499e-08
1.02605e-07
-3.04892e-07
3.85272e-07
-6.4504e-07
6.35086e-07
-1.06126e-06
8.03794e-07
-1.50904e-06
8.78491e-07
-1.9448e-06
8.61815e-07
-2.32966e-06
7.64499e-07
-2.63158e-06
6.01372e-07
-2.82649e-06
3.89074e-07
-2.8989e-06
1.45141e-07
-2.84236e-06
-1.12115e-07
-2.65993e-06
-3.6342e-07
-2.36458e-06
-5.88446e-07
-1.97944e-06
-7.66135e-07
-1.53746e-06
-8.75766e-07
-1.08003e-06
-8.99073e-07
-6.54062e-07
-8.23739e-07
-3.07059e-07
-6.48216e-07
-8.00711e-08
-3.89275e-07
-1.00963e-07
-1.23134e-07
2.2574e-07
-4.39208e-07
7.01345e-07
-8.95973e-07
1.09185e-06
-1.43805e-06
1.34587e-06
-2.00967e-06
1.45011e-06
-2.55864e-06
1.41078e-06
-3.03928e-06
1.24514e-06
-3.41434e-06
9.76429e-07
-3.65592e-06
6.30657e-07
-3.74609e-06
2.35305e-07
-3.67727e-06
-1.80934e-07
-3.45277e-06
-5.87917e-07
-3.0873e-06
-9.5392e-07
-2.60731e-06
-1.24612e-06
-2.0509e-06
-1.43218e-06
-1.46663e-06
-1.48334e-06
-9.10936e-07
-1.37944e-06
-4.43768e-07
-1.11538e-06
-1.22996e-07
-7.10047e-07
-2.23959e-07
-1.60744e-07
3.86484e-07
-5.6185e-07
1.10245e-06
-1.12755e-06
1.65755e-06
-1.78548e-06
2.0038e-06
-2.46833e-06
2.13296e-06
-3.11628e-06
2.05874e-06
-3.67881e-06
1.80767e-06
-4.11556e-06
1.41318e-06
-4.39671e-06
9.11805e-07
-4.50307e-06
3.41667e-07
-4.4263e-06
-2.57709e-07
-4.1693e-06
-8.44908e-07
-3.747e-06
-1.37623e-06
-3.18702e-06
-1.8061e-06
-2.53028e-06
-2.08892e-06
-1.83062e-06
-2.183e-06
-1.15323e-06
-2.05683e-06
-5.71327e-07
-1.69728e-06
-1.61604e-07
-1.11977e-06
-3.85563e-07
-1.95431e-07
5.81914e-07
-6.76492e-07
1.58351e-06
-1.34456e-06
2.32562e-06
-2.10977e-06
2.76901e-06
-2.89321e-06
2.9164e-06
-3.62832e-06
2.79385e-06
-4.26126e-06
2.44061e-06
-4.7504e-06
1.90232e-06
-5.06561e-06
1.22701e-06
-5.18751e-06
4.6357e-07
-5.10722e-06
-3.37999e-07
-4.82665e-06
-1.12548e-06
-4.35946e-06
-1.84342e-06
-3.73251e-06
-2.43305e-06
-2.98741e-06
-2.83402e-06
-2.18165e-06
-2.98876e-06
-1.38852e-06
-2.84996e-06
-6.95198e-07
-2.39061e-06
-1.98677e-07
-1.61629e-06
-5.84239e-07
-2.29149e-07
8.11063e-07
-7.87017e-07
2.14138e-06
-1.55152e-06
3.09012e-06
-2.41485e-06
3.63234e-06
-3.2869e-06
3.78845e-06
-4.09567e-06
3.60262e-06
-4.7859e-06
3.13084e-06
-5.3168e-06
2.43322e-06
-5.65971e-06
1.56992e-06
-5.79625e-06
6.00108e-07
-5.71733e-06
-4.16916e-07
-5.42326e-06
-1.41955e-06
-4.92496e-06
-2.34172e-06
-4.24627e-06
-3.11174e-06
-3.42701e-06
-3.65327e-06
-2.52608e-06
-3.88969e-06
-1.62361e-06
-3.75244e-06
-8.20876e-07
-3.19334e-06
-2.36827e-07
-2.20034e-06
-8.21067e-07
-2.63488e-07
1.07455e-06
-8.96355e-07
2.77425e-06
-1.75066e-06
3.94442e-06
-2.69996e-06
4.58165e-06
-3.64396e-06
4.73244e-06
-4.50742e-06
4.46609e-06
-5.23649e-06
3.85992e-06
-5.79399e-06
2.99072e-06
-6.15506e-06
1.93099e-06
-6.30387e-06
7.48921e-07
-6.23172e-06
-4.89064e-07
-5.93676e-06
-1.71451e-06
-5.42549e-06
-2.85299e-06
-4.71608e-06
-3.82115e-06
-3.84317e-06
-4.52618e-06
-2.86362e-06
-4.86923e-06
-1.8618e-06
-4.75426e-06
-9.52376e-07
-4.10276e-06
-2.78193e-07
-2.87452e-06
-1.09926e-06
-2.99746e-07
1.3743e-06
-1.00614e-06
3.48064e-06
-1.94083e-06
4.87911e-06
-2.95784e-06
5.59866e-06
-3.94861e-06
5.72321e-06
-4.83835e-06
5.35582e-06
-5.5787e-06
4.60027e-06
-6.13995e-06
3.55196e-06
-6.50414e-06
2.29518e-06
-6.66007e-06
9.04858e-07
-6.60035e-06
-5.48787e-07
-6.3206e-06
-1.99427e-06
-5.82112e-06
-3.35246e-06
-5.11114e-06
-4.53113e-06
-4.21562e-06
-5.42171e-06
-3.1842e-06
-5.90065e-06
-2.10087e-06
-5.8376e-06
-1.09138e-06
-5.11224e-06
-3.24372e-07
-3.64154e-06
-1.42363e-06
-3.39241e-07
1.71354e-06
-1.11675e-06
4.25814e-06
-2.11665e-06
5.87902e-06
-3.17268e-06
6.65469e-06
-4.17183e-06
6.72235e-06
-5.04541e-06
6.2294e-06
-5.75649e-06
5.31135e-06
-6.28785e-06
4.08333e-06
-6.63234e-06
2.63967e-06
-6.78601e-06
1.05853e-06
-6.74408e-06
-5.90715e-07
-6.4996e-06
-2.23874e-06
-6.045e-06
-3.80707e-06
-5.37693e-06
-5.1992e-06
-4.50498e-06
-6.29365e-06
-3.46429e-06
-6.94134e-06
-2.3309e-06
-6.97099e-06
-1.23657e-06
-6.20658e-06
-3.76508e-07
-4.50159e-06
-1.80014e-06
-3.83803e-07
2.09734e-06
-1.22732e-06
5.10165e-06
-2.26692e-06
6.91862e-06
-3.3169e-06
7.70466e-06
-4.26674e-06
7.6722e-06
-5.06265e-06
7.02531e-06
-5.68703e-06
5.93573e-06
-6.14135e-06
4.53765e-06
-6.43362e-06
2.93193e-06
-6.57003e-06
1.19494e-06
-6.55012e-06
-6.10627e-07
-6.36479e-06
-2.42407e-06
-5.9974e-06
-4.17445e-06
-5.42864e-06
-5.76796e-06
-4.64633e-06
-7.07596e-06
-3.66155e-06
-7.92612e-06
-2.53097e-06
-8.10156e-06
-1.38245e-06
-7.3551e-06
-4.35408e-07
-5.44863e-06
-2.23555e-06
-4.36418e-07
2.53376e-06
-1.33494e-06
6.00018e-06
-2.37096e-06
7.95465e-06
-3.34466e-06
8.67836e-06
-4.16082e-06
8.48836e-06
-4.7933e-06
7.65779e-06
-5.25373e-06
6.39617e-06
-5.56886e-06
4.85278e-06
-5.76589e-06
3.12896e-06
-5.86371e-06
1.29276e-06
-5.86787e-06
-6.06473e-07
-5.76823e-06
-2.52371e-06
-5.53913e-06
-4.40354e-06
-5.14311e-06
-6.16399e-06
-4.54029e-06
-7.67878e-06
-3.70665e-06
-8.75976e-06
-2.66343e-06
-9.14479e-06
-1.51709e-06
-8.50144e-06
-5.01581e-07
-6.46414e-06
-2.73713e-06
-5.01825e-07
3.03559e-06
-1.43145e-06
6.9298e-06
-2.38977e-06
8.91297e-06
-3.17929e-06
9.46788e-06
-3.74222e-06
9.05128e-06
-4.09754e-06
8.01312e-06
-4.29679e-06
6.59541e-06
-4.39718e-06
4.95317e-06
-4.44723e-06
3.17902e-06
-4.47947e-06
1.32499e-06
-4.50665e-06
-5.79291e-07
-4.51945e-06
-2.51091e-06
-4.48526e-06
-4.43774e-06
-4.34925e-06
-6.29999e-06
-4.04079e-06
-7.98724e-06
-3.49029e-06
-9.31026e-06
-2.66335e-06
-9.97174e-06
-1.61688e-06
-9.54791e-06
-5.74799e-07
-7.50622e-06
-3.31193e-06
-5.8572e-07
3.6213e-06
-1.49339e-06
7.83747e-06
-2.24619e-06
9.66577e-06
-2.68886e-06
9.91055e-06
-2.8367e-06
9.19912e-06
-2.77434e-06
7.95076e-06
-2.60114e-06
6.42221e-06
-2.4053e-06
4.75733e-06
-2.25416e-06
3.02788e-06
-2.19165e-06
1.26248e-06
-2.23741e-06
-5.33533e-07
-2.38536e-06
-2.36296e-06
-2.60093e-06
-4.22216e-06
-2.81795e-06
-6.08297e-06
-2.93843e-06
-7.86676e-06
-2.8423e-06
-9.4064e-06
-2.41884e-06
-1.03952e-05
-1.63447e-06
-1.03323e-05
-6.51559e-07
-8.48913e-06
-3.96349e-06
-6.87633e-07
4.30894e-06
-1.45333e-06
8.60317e-06
-1.78073e-06
9.99316e-06
-1.64055e-06
9.77037e-06
-1.17022e-06
8.72879e-06
-5.36106e-07
7.31665e-06
1.16919e-07
5.76918e-06
6.79305e-07
4.19495e-06
1.07503e-06
2.63215e-06
1.25611e-06
1.0814e-06
1.19878e-06
-4.762e-07
9.03292e-07
-2.06747e-06
3.97968e-07
-3.71684e-06
-2.52798e-07
-5.43221e-06
-9.38591e-07
-7.18096e-06
-1.4978e-06
-8.84719e-06
-1.73257e-06
-1.01604e-05
-1.46954e-06
-1.05953e-05
-7.15538e-07
-9.24313e-06
-4.67902e-06
-7.73686e-07
5.08262e-06
-1.12387e-06
8.95336e-06
-6.5876e-07
9.52805e-06
3.78975e-07
8.73263e-06
1.6854e-06
7.42237e-06
3.02057e-06
5.98147e-06
4.21935e-06
4.57041e-06
5.17655e-06
3.23774e-06
5.82757e-06
1.98114e-06
6.13326e-06
7.75703e-07
6.07144e-06
-4.1438e-07
5.63472e-06
-1.63075e-06
4.83472e-06
-2.91685e-06
3.71371e-06
-4.31119e-06
2.36431e-06
-5.83157e-06
9.55385e-07
-7.43826e-06
-2.48128e-07
-8.95691e-06
-8.99755e-07
-9.94368e-06
-7.08752e-07
-9.43414e-06
-5.38778e-06
-6.88928e-07
5.77155e-06
-1.64592e-08
8.28089e-06
1.79799e-06
7.7136e-06
4.07625e-06
6.45437e-06
6.36848e-06
5.13014e-06
8.42936e-06
3.92059e-06
1.01352e-05
2.86461e-06
1.14287e-05
1.94421e-06
1.22842e-05
1.12564e-06
1.26871e-05
3.72767e-07
1.26242e-05
-3.51471e-07
1.20804e-05
-1.08697e-06
1.10415e-05
-1.87787e-06
9.50441e-06
-2.77415e-06
7.50097e-06
-3.82812e-06
5.13927e-06
-5.07656e-06
2.66875e-06
-6.48639e-06
5.64635e-07
-7.83957e-06
-4.45862e-07
-8.42364e-06
-5.83364e-06
1.83877e-07
5.58768e-06
3.04718e-06
5.41758e-06
6.87958e-06
3.88121e-06
1.05662e-05
2.76773e-06
1.374e-05
1.95639e-06
1.63143e-05
1.34624e-06
1.83005e-05
8.78444e-07
1.97366e-05
5.08103e-07
2.06579e-05
2.04361e-07
2.10848e-05
-5.41675e-08
2.1018e-05
-2.84642e-07
2.04375e-05
-5.0653e-07
1.93013e-05
-7.41584e-07
1.75479e-05
-1.02081e-06
1.51088e-05
-1.38903e-06
1.19418e-05
-1.90949e-06
8.11463e-06
-2.65926e-06
3.99364e-06
-3.71858e-06
6.67419e-07
-5.09742e-06
-5.16622e-06
4.12593e-06
1.46175e-06
1.11336e-05
-1.59007e-06
1.7009e-05
-1.99423e-06
2.14855e-05
-1.70872e-06
2.48268e-05
-1.38497e-06
2.72837e-05
-1.11062e-06
2.90539e-05
-8.91778e-07
3.02738e-05
-7.11795e-07
3.10284e-05
-5.50208e-07
3.13632e-05
-3.89033e-07
3.12914e-05
-2.1282e-07
3.07927e-05
-7.75789e-09
2.98116e-05
2.39434e-07
2.82478e-05
5.43009e-07
2.59411e-05
9.17652e-07
2.26582e-05
1.37348e-06
1.81067e-05
1.89217e-06
1.20233e-05
2.36487e-06
4.68273e-06
2.24314e-06
-4.8349e-07
2.14348e-05
3.13749e-05
3.59838e-05
3.87343e-05
4.05004e-05
4.16726e-05
4.24626e-05
4.29812e-05
4.32877e-05
4.34119e-05
4.33627e-05
4.31303e-05
4.26828e-05
4.19556e-05
4.08276e-05
3.90647e-05
3.62036e-05
3.1217e-05
2.0812e-05
)
;

boundaryField
{
    movingWall
    {
        type            calculated;
        value           nonuniform List<scalar> 
20
(
-1.99731e-05
-1.15302e-05
-6.60306e-06
-4.45927e-06
-3.15103e-06
-2.28287e-06
-1.68172e-06
-1.23043e-06
-8.56712e-07
-5.13167e-07
-1.63623e-07
2.24583e-07
6.86973e-07
1.27015e-06
2.04571e-06
3.13637e-06
4.75324e-06
7.35147e-06
1.26482e-05
2.03285e-05
)
;
    }
    fixedWalls
    {
        type            calculated;
        value           uniform 0;
    }
    frontAndBack
    {
        type            empty;
        value           nonuniform List<scalar> 0();
    }
}


// ************************************************************************* //
