/*--------------------------------*- C++ -*----------------------------------*\
| =========                 |                                                 |
| \\      /  F ield         | OpenFOAM: The Open Source CFD Toolbox           |
|  \\    /   O peration     | Version:  v2012                                 |
|   \\  /    A nd           | Website:  www.openfoam.com                      |
|    \\/     M anipulation  |                                                 |
\*---------------------------------------------------------------------------*/
FoamFile
{
    version     2.0;
    format      ascii;
    class       volVectorField;
    location    "0.7";
    object      U;
}
// * * * * * * * * * * * * * * * * * * * * * * * * * * * * * * * * * * * * * //

dimensions      [0 1 -1 0 0 0 0];


internalField   nonuniform List<vector> 
400
(
(0.00019469 -0.000192336 0)
(4.86778e-05 0.000125223 0)
(-0.00111833 0.000501307 0)
(-0.00308898 0.000758236 0)
(-0.00552395 0.0008808 0)
(-0.00809634 0.000885226 0)
(-0.010521 0.000793756 0)
(-0.0125657 0.000628749 0)
(-0.0140538 0.000410615 0)
(-0.0148623 0.000158209 0)
(-0.0149215 -0.000109835 0)
(-0.014217 -0.000373725 0)
(-0.0127938 -0.000611469 0)
(-0.0107618 -0.000798385 0)
(-0.00829991 -0.00090741 0)
(-0.00565761 -0.000910816 0)
(-0.00314698 -0.000784326 0)
(-0.00112151 -0.000514363 0)
(6.53057e-05 -0.000123593 0)
(0.000203266 0.000199531 0)
(-0.00010069 -6.95913e-05 0)
(-0.00147186 0.00149323 0)
(-0.00497138 0.0031211 0)
(-0.0100454 0.00425583 0)
(-0.0160149 0.00479614 0)
(-0.0222141 0.0047729 0)
(-0.0280204 0.00426543 0)
(-0.0329028 0.00337115 0)
(-0.0364464 0.00219127 0)
(-0.0383598 0.000827506 0)
(-0.0384806 -0.000615865 0)
(-0.0367812 -0.0020287 0)
(-0.0333762 -0.00329265 0)
(-0.0285304 -0.00428151 0)
(-0.0226611 -0.0048662 0)
(-0.0163303 -0.0049267 0)
(-0.0102101 -0.00437478 0)
(-0.00501698 -0.00318972 0)
(-0.00146076 -0.00150184 0)
(-8.97301e-05 8.97163e-05 0)
(-0.000479989 0.00105975 0)
(-0.00321395 0.00500597 0)
(-0.00899558 0.00868748 0)
(-0.0168008 0.0112256 0)
(-0.0256617 0.0123933 0)
(-0.0346977 0.0122244 0)
(-0.0430771 0.0108784 0)
(-0.0500816 0.00857449 0)
(-0.0551458 0.00555618 0)
(-0.0578719 0.00207818 0)
(-0.0580385 -0.00159422 0)
(-0.0556097 -0.00518151 0)
(-0.0507441 -0.00838783 0)
(-0.0438028 -0.0109053 0)
(-0.0353508 -0.0124293 0)
(-0.0261427 -0.0126902 0)
(-0.0170729 -0.011507 0)
(-0.00909089 -0.00886483 0)
(-0.00321302 -0.0050505 0)
(-0.000467517 -0.00102894 0)
(-0.000805047 0.00311374 0)
(-0.0048028 0.0104543 0)
(-0.0127418 0.016727 0)
(-0.0230556 0.020908 0)
(-0.0344667 0.0227102 0)
(-0.0459126 0.0222048 0)
(-0.0564134 0.0196599 0)
(-0.0651309 0.0154474 0)
(-0.0714095 0.00998738 0)
(-0.0747889 0.00372452 0)
(-0.0750123 -0.00287573 0)
(-0.0720347 -0.00932385 0)
(-0.0660339 -0.0151047 0)
(-0.0574206 -0.0196861 0)
(-0.0468437 -0.0225462 0)
(-0.0351806 -0.0232264 0)
(-0.023487 -0.0214165 0)
(-0.0129162 -0.0170692 0)
(-0.00482085 -0.0105656 0)
(-0.000791212 -0.00307495 0)
(-0.00108135 0.00596638 0)
(-0.00623178 0.0176552 0)
(-0.0161911 0.0269908 0)
(-0.0288389 0.0329587 0)
(-0.0425705 0.0353166 0)
(-0.0561492 0.0342417 0)
(-0.0684792 0.0301569 0)
(-0.0786454 0.0236186 0)
(-0.0859446 0.015247 0)
(-0.0898866 0.00569584 0)
(-0.0901951 -0.00435328 0)
(-0.0868132 -0.0141849 0)
(-0.0799153 -0.0230459 0)
(-0.0699233 -0.0301563 0)
(-0.0575228 -0.0347448 0)
(-0.0436684 -0.0361206 0)
(-0.0295474 -0.0337865 0)
(-0.0165174 -0.0275857 0)
(-0.00629777 -0.0178886 0)
(-0.00107101 -0.00593026 0)
(-0.0013321 0.00953623 0)
(-0.00756058 0.0264964 0)
(-0.0194264 0.0393583 0)
(-0.0342572 0.0472315 0)
(-0.0501144 0.0500316 0)
(-0.0655946 0.0481305 0)
(-0.0795113 0.0421677 0)
(-0.0909093 0.0329228 0)
(-0.0990739 0.0212372 0)
(-0.103513 0.00798127 0)
(-0.103946 -0.00594629 0)
(-0.100298 -0.019605 0)
(-0.0927207 -0.0320005 0)
(-0.0816105 -0.0420906 0)
(-0.0676465 -0.048823 0)
(-0.0518202 -0.0512207 0)
(-0.0354252 -0.0485199 0)
(-0.0200237 -0.0403506 0)
(-0.00772745 -0.0269551 0)
(-0.00133621 -0.00953426 0)
(-0.00157845 0.0137849 0)
(-0.00885164 0.0368999 0)
(-0.0225365 0.0537159 0)
(-0.0393993 0.0635691 0)
(-0.0571662 0.0666555 0)
(-0.0742843 0.063647 0)
(-0.0895111 0.0554745 0)
(-0.101893 0.0431843 0)
(-0.110745 0.0278555 0)
(-0.115606 0.0105723 0)
(-0.116202 -0.00756421 0)
(-0.112444 -0.0254069 0)
(-0.104435 -0.0417328 0)
(-0.0925084 -0.0552344 0)
(-0.0772878 -0.06455 0)
(-0.0597506 -0.0683538 0)
(-0.0412584 -0.0655163 0)
(-0.023565 -0.0553248 0)
(-0.00919536 -0.0377565 0)
(-0.00161426 -0.0138833 0)
(-0.00183836 0.0187102 0)
(-0.0101569 0.0488198 0)
(-0.0255836 0.0699452 0)
(-0.0442897 0.0817697 0)
(-0.0636696 0.0849164 0)
(-0.0820563 0.0804827 0)
(-0.0982044 0.0697772 0)
(-0.111221 0.0541584 0)
(-0.120504 0.0349526 0)
(-0.125661 0.0134417 0)
(-0.126451 -0.00910397 0)
(-0.122768 -0.0313689 0)
(-0.114645 -0.0519341 0)
(-0.10231 -0.0692403 0)
(-0.0862656 -0.0815968 0)
(-0.0674039 -0.0872636 0)
(-0.0470891 -0.0846278 0)
(-0.0272274 -0.0724722 0)
(-0.0107716 -0.0503327 0)
(-0.0019291 -0.0190224 0)
(-0.00212871 0.0243386 0)
(-0.0115171 0.0622291 0)
(-0.0285882 0.0878975 0)
(-0.0488582 0.101546 0)
(-0.0694021 0.104416 0)
(-0.0885015 0.0981834 0)
(-0.104991 0.0846335 0)
(-0.118121 0.0654793 0)
(-0.127443 0.0422934 0)
(-0.132686 0.0165206 0)
(-0.133674 -0.0104536 0)
(-0.130288 -0.037208 0)
(-0.122473 -0.0621854 0)
(-0.110297 -0.0836128 0)
(-0.0940653 -0.0994696 0)
(-0.0744827 -0.107542 0)
(-0.0528097 -0.1056 0)
(-0.0310255 -0.0917183 0)
(-0.0125045 -0.0647475 0)
(-0.00230236 -0.025035 0)
(-0.00247033 0.0307225 0)
(-0.0129689 0.077097 0)
(-0.031524 0.107345 0)
(-0.0529114 0.122453 0)
(-0.0739239 0.124543 0)
(-0.092898 0.116064 0)
(-0.108872 0.099381 0)
(-0.121351 0.076597 0)
(-0.130131 0.0495096 0)
(-0.135129 0.0196702 0)
(-0.136271 -0.0115 0)
(-0.133441 -0.042564 0)
(-0.126477 -0.071916 0)
(-0.115238 -0.097641 0)
(-0.0997379 -0.11742 0)
(-0.0803601 -0.128525 0)
(-0.058103 -0.127973 0)
(-0.0348744 -0.112872 0)
(-0.0144192 -0.0810461 0)
(-0.0027568 -0.0320323 0)
(-0.0028962 0.0379446 0)
(-0.0145553 0.0933606 0)
(-0.034304 0.127907 0)
(-0.0560826 0.143786 0)
(-0.0764954 0.14437 0)
(-0.0941104 0.133109 0)
(-0.108344 0.113057 0)
(-0.119101 0.0867145 0)
(-0.126526 0.0560551 0)
(-0.130793 0.0226522 0)
(-0.131976 -0.0121425 0)
(-0.129983 -0.0469949 0)
(-0.124543 -0.0803736 0)
(-0.115261 -0.110337 0)
(-0.101765 -0.134347 0)
(-0.0839572 -0.149172 0)
(-0.0623521 -0.150946 0)
(-0.038548 -0.135516 0)
(-0.0165136 -0.0991937 0)
(-0.0033213 -0.0401464 0)
(-0.00346406 0.0461383 0)
(-0.0163339 0.110884 0)
(-0.0367383 0.148942 0)
(-0.0577258 0.164441 0)
(-0.0759281 0.162513 0)
(-0.0904267 0.14787 0)
(-0.101251 0.124325 0)
(-0.108868 0.0947408 0)
(-0.11387 0.0611745 0)
(-0.116752 0.0251055 0)
(-0.117776 -0.0123124 0)
(-0.116903 -0.0499874 0)
(-0.113766 -0.0866154 0)
(-0.107705 -0.12039 0)
(-0.0978844 -0.148707 0)
(-0.0835632 -0.167913 0)
(-0.0644931 -0.173201 0)
(-0.0415966 -0.158839 0)
(-0.0187446 -0.118986 0)
(-0.00403774 -0.0495277 0)
(-0.00427365 0.0555251 0)
(-0.0183653 0.129379 0)
(-0.0384121 0.169361 0)
(-0.056689 0.182711 0)
(-0.0703082 0.176977 0)
(-0.0792908 0.158365 0)
(-0.0845609 0.131433 0)
(-0.0872941 0.099283 0)
(-0.0885952 0.063906 0)
(-0.0893011 0.0265411 0)
(-0.089879 -0.011993 0)
(-0.090372 -0.0509896 0)
(-0.0903626 -0.0895384 0)
(-0.0889609 -0.126171 0)
(-0.0848659 -0.158447 0)
(-0.0765697 -0.182504 0)
(-0.0627633 -0.192673 0)
(-0.0431828 -0.181397 0)
(-0.0209829 -0.139901 0)
(-0.00496704 -0.060345 0)
(-0.00547596 0.0664374 0)
(-0.0206236 0.148178 0)
(-0.0383712 0.187273 0)
(-0.0508407 0.195973 0)
(-0.0564984 0.184967 0)
(-0.0568789 0.162023 0)
(-0.0540621 0.132244 0)
(-0.0499929 0.098717 0)
(-0.0462501 0.0631479 0)
(-0.0439538 0.0263763 0)
(-0.0437445 -0.0112344 0)
(-0.0457681 -0.0494748 0)
(-0.0496329 -0.0879715 0)
(-0.0543419 -0.125806 0)
(-0.0582422 -0.16101 0)
(-0.0590789 -0.18989 0)
(-0.0542632 -0.206245 0)
(-0.0417369 -0.200702 0)
(-0.0228745 -0.160773 0)
(-0.00617748 -0.0727362 0)
(-0.00721549 0.07924 0)
(-0.0226426 0.16566 0)
(-0.0343385 0.199303 0)
(-0.0361132 0.200241 0)
(-0.0292775 0.182738 0)
(-0.0174677 0.155753 0)
(-0.00398734 0.124422 0)
(0.00860898 0.0913956 0)
(0.0184885 0.0578305 0)
(0.0244336 0.0240298 0)
(0.0257365 -0.0101556 0)
(0.0221538 -0.0450456 0)
(0.0139434 -0.080867 0)
(0.00198871 -0.117413 0)
(-0.0120083 -0.153514 0)
(-0.0253307 -0.186197 0)
(-0.0341807 -0.209425 0)
(-0.0342139 -0.21258 0)
(-0.0234335 -0.179137 0)
(-0.00765295 -0.0866208 0)
(-0.00929342 0.0945086 0)
(-0.02241 0.178562 0)
(-0.0208915 0.19993 0)
(-0.00468318 0.190021 0)
(0.020017 0.16591 0)
(0.0473791 0.136496 0)
(0.073345 0.106026 0)
(0.0953 0.0761712 0)
(0.111627 0.0473016 0)
(0.121344 0.0191407 0)
(0.123861 -0.00891135 0)
(0.118879 -0.0376023 0)
(0.106408 -0.067676 0)
(0.0869132 -0.0996524 0)
(0.061635 -0.133399 0)
(0.0330694 -0.167269 0)
(0.00553233 -0.196511 0)
(-0.014539 -0.21079 0)
(-0.019945 -0.19064 0)
(-0.00891666 -0.101759 0)
(-0.00977107 0.113831 0)
(-0.0133444 0.181307 0)
(0.0142277 0.181421 0)
(0.057906 0.159231 0)
(0.105122 0.130907 0)
(0.14943 0.102721 0)
(0.187495 0.0767991 0)
(0.217678 0.0533864 0)
(0.239263 0.0320163 0)
(0.251916 0.0119731 0)
(0.255388 -0.00756983 0)
(0.249401 -0.0275262 0)
(0.233633 -0.0488847 0)
(0.207841 -0.072664 0)
(0.172176 -0.0997161 0)
(0.127831 -0.130127 0)
(0.0779851 -0.161739 0)
(0.0292202 -0.187309 0)
(-0.00526998 -0.188532 0)
(-0.00765565 -0.118263 0)
(0.00111308 0.128886 0)
(0.0243975 0.154781 0)
(0.0970238 0.128676 0)
(0.176281 0.0999009 0)
(0.24581 0.0751429 0)
(0.303301 0.0548954 0)
(0.348784 0.0385143 0)
(0.382859 0.0250337 0)
(0.406316 0.0135762 0)
(0.419754 0.00341063 0)
(0.423402 -0.00611993 0)
(0.417075 -0.0156828 0)
(0.400148 -0.0260556 0)
(0.371559 -0.0382092 0)
(0.329941 -0.0533754 0)
(0.274062 -0.0729611 0)
(0.203407 -0.0979664 0)
(0.119863 -0.127454 0)
(0.0392925 -0.152812 0)
(0.00569623 -0.125429 0)
(0.0699974 0.0606642 0)
(0.153723 0.0312718 0)
(0.282687 0.00833698 0)
(0.389952 -0.00102182 0)
(0.46761 -0.0048079 0)
(0.524472 -0.00643182 0)
(0.566063 -0.0071206 0)
(0.595544 -0.00730022 0)
(0.615029 -0.00707308 0)
(0.625804 -0.00642348 0)
(0.62845 -0.00530484 0)
(0.622901 -0.00367805 0)
(0.608426 -0.00155426 0)
(0.583502 0.000961704 0)
(0.545618 0.00358313 0)
(0.49104 0.00562996 0)
(0.413792 0.00552794 0)
(0.304514 -0.000300892 0)
(0.168986 -0.01889 0)
(0.0722289 -0.0458448 0)
(0.397754 -0.21081 0)
(0.554081 -0.189748 0)
(0.67675 -0.136328 0)
(0.751717 -0.0984572 0)
(0.795451 -0.0722501 0)
(0.823602 -0.0537654 0)
(0.842655 -0.0403874 0)
(0.855449 -0.0301136 0)
(0.863538 -0.0215083 0)
(0.867772 -0.013541 0)
(0.868523 -0.0054007 0)
(0.865788 0.00364005 0)
(0.859169 0.014353 0)
(0.847751 0.0276948 0)
(0.829806 0.0450271 0)
(0.802151 0.0684286 0)
(0.757976 0.101022 0)
(0.680931 0.14774 0)
(0.549245 0.212829 0)
(0.36767 0.232645 0)
)
;

boundaryField
{
    movingWall
    {
        type            fixedValue;
        value           uniform (1 0 0);
    }
    fixedWalls
    {
        type            noSlip;
    }
    frontAndBack
    {
        type            empty;
    }
}


// ************************************************************************* //
