/*--------------------------------*- C++ -*----------------------------------*\
| =========                 |                                                 |
| \\      /  F ield         | OpenFOAM: The Open Source CFD Toolbox           |
|  \\    /   O peration     | Version:  v2012                                 |
|   \\  /    A nd           | Website:  www.openfoam.com                      |
|    \\/     M anipulation  |                                                 |
\*---------------------------------------------------------------------------*/
FoamFile
{
    version     2.0;
    format      ascii;
    class       volVectorField;
    location    "1.3";
    object      U;
}
// * * * * * * * * * * * * * * * * * * * * * * * * * * * * * * * * * * * * * //

dimensions      [0 1 -1 0 0 0 0];


internalField   nonuniform List<vector> 
400
(
(0.000194691 -0.000192337 0)
(4.86806e-05 0.000125221 0)
(-0.00111833 0.000501308 0)
(-0.00308899 0.00075824 0)
(-0.00552396 0.000880805 0)
(-0.00809636 0.00088523 0)
(-0.010521 0.000793758 0)
(-0.0125657 0.000628747 0)
(-0.0140538 0.000410611 0)
(-0.0148623 0.000158206 0)
(-0.0149215 -0.000109835 0)
(-0.014217 -0.000373722 0)
(-0.0127939 -0.000611465 0)
(-0.0107618 -0.000798383 0)
(-0.00829993 -0.000907412 0)
(-0.00565761 -0.000910822 0)
(-0.00314698 -0.000784334 0)
(-0.0011215 -0.000514369 0)
(6.53094e-05 -0.000123595 0)
(0.000203266 0.000199531 0)
(-0.000100689 -6.95914e-05 0)
(-0.00147186 0.00149323 0)
(-0.00497139 0.00312111 0)
(-0.0100454 0.00425584 0)
(-0.0160149 0.00479616 0)
(-0.0222141 0.00477291 0)
(-0.0280205 0.00426544 0)
(-0.0329029 0.00337116 0)
(-0.0364464 0.00219126 0)
(-0.0383599 0.000827499 0)
(-0.0384807 -0.000615872 0)
(-0.0367813 -0.00202871 0)
(-0.0333763 -0.00329265 0)
(-0.0285304 -0.00428151 0)
(-0.0226612 -0.0048662 0)
(-0.0163303 -0.00492671 0)
(-0.0102101 -0.0043748 0)
(-0.00501698 -0.00318974 0)
(-0.00146075 -0.00150186 0)
(-8.97278e-05 8.97129e-05 0)
(-0.000479991 0.00105975 0)
(-0.00321395 0.00500598 0)
(-0.00899559 0.00868749 0)
(-0.0168008 0.0112256 0)
(-0.0256618 0.0123933 0)
(-0.0346977 0.0122245 0)
(-0.0430772 0.0108784 0)
(-0.0500818 0.00857451 0)
(-0.0551459 0.00555619 0)
(-0.057872 0.00207818 0)
(-0.0580386 -0.00159423 0)
(-0.0556098 -0.00518153 0)
(-0.0507443 -0.00838785 0)
(-0.0438029 -0.0109053 0)
(-0.0353509 -0.0124293 0)
(-0.0261427 -0.0126903 0)
(-0.0170729 -0.011507 0)
(-0.00909091 -0.00886485 0)
(-0.00321301 -0.00505051 0)
(-0.000467514 -0.00102895 0)
(-0.00080505 0.00311375 0)
(-0.00480281 0.0104544 0)
(-0.0127418 0.0167271 0)
(-0.0230557 0.0209081 0)
(-0.0344668 0.0227103 0)
(-0.0459127 0.0222048 0)
(-0.0564135 0.01966 0)
(-0.065131 0.0154475 0)
(-0.0714096 0.0099874 0)
(-0.0747891 0.00372453 0)
(-0.0750124 -0.00287574 0)
(-0.0720349 -0.00932389 0)
(-0.0660341 -0.0151047 0)
(-0.0574208 -0.0196861 0)
(-0.0468438 -0.0225462 0)
(-0.0351807 -0.0232264 0)
(-0.023487 -0.0214165 0)
(-0.0129163 -0.0170693 0)
(-0.00482085 -0.0105656 0)
(-0.000791209 -0.00307496 0)
(-0.00108135 0.0059664 0)
(-0.00623179 0.0176553 0)
(-0.0161912 0.0269908 0)
(-0.0288389 0.0329587 0)
(-0.0425705 0.0353166 0)
(-0.0561493 0.0342417 0)
(-0.0684793 0.030157 0)
(-0.0786455 0.0236186 0)
(-0.0859448 0.015247 0)
(-0.0898868 0.00569585 0)
(-0.0901953 -0.00435329 0)
(-0.0868133 -0.0141849 0)
(-0.0799154 -0.023046 0)
(-0.0699234 -0.0301564 0)
(-0.0575229 -0.0347449 0)
(-0.0436684 -0.0361207 0)
(-0.0295475 -0.0337865 0)
(-0.0165174 -0.0275857 0)
(-0.00629778 -0.0178886 0)
(-0.00107101 -0.00593028 0)
(-0.0013321 0.00953624 0)
(-0.00756059 0.0264964 0)
(-0.0194264 0.0393583 0)
(-0.0342572 0.0472316 0)
(-0.0501145 0.0500317 0)
(-0.0655947 0.0481306 0)
(-0.0795115 0.0421678 0)
(-0.0909094 0.0329229 0)
(-0.0990741 0.0212373 0)
(-0.103514 0.00798129 0)
(-0.103946 -0.00594631 0)
(-0.100298 -0.019605 0)
(-0.0927208 -0.0320006 0)
(-0.0816107 -0.0420907 0)
(-0.0676466 -0.0488231 0)
(-0.0518202 -0.0512208 0)
(-0.0354252 -0.04852 0)
(-0.0200237 -0.0403507 0)
(-0.00772746 -0.0269551 0)
(-0.00133621 -0.00953428 0)
(-0.00157845 0.0137849 0)
(-0.00885165 0.0369 0)
(-0.0225366 0.053716 0)
(-0.0393993 0.0635692 0)
(-0.0571663 0.0666556 0)
(-0.0742844 0.0636472 0)
(-0.0895112 0.0554746 0)
(-0.101893 0.0431844 0)
(-0.110746 0.0278555 0)
(-0.115606 0.0105724 0)
(-0.116202 -0.00756423 0)
(-0.112444 -0.0254069 0)
(-0.104435 -0.0417329 0)
(-0.0925086 -0.0552345 0)
(-0.0772879 -0.0645501 0)
(-0.0597506 -0.068354 0)
(-0.0412585 -0.0655164 0)
(-0.023565 -0.0553249 0)
(-0.00919537 -0.0377565 0)
(-0.00161427 -0.0138833 0)
(-0.00183836 0.0187102 0)
(-0.0101569 0.0488199 0)
(-0.0255836 0.0699453 0)
(-0.0442897 0.0817698 0)
(-0.0636697 0.0849166 0)
(-0.0820564 0.0804829 0)
(-0.0982045 0.0697774 0)
(-0.111221 0.0541584 0)
(-0.120504 0.0349527 0)
(-0.125661 0.0134418 0)
(-0.126451 -0.00910399 0)
(-0.122768 -0.031369 0)
(-0.114645 -0.0519342 0)
(-0.10231 -0.0692405 0)
(-0.0862656 -0.081597 0)
(-0.0674039 -0.0872638 0)
(-0.0470891 -0.0846279 0)
(-0.0272275 -0.0724723 0)
(-0.0107716 -0.0503328 0)
(-0.0019291 -0.0190225 0)
(-0.00212871 0.0243387 0)
(-0.0115171 0.0622291 0)
(-0.0285883 0.0878977 0)
(-0.0488582 0.101546 0)
(-0.0694022 0.104416 0)
(-0.0885015 0.0981836 0)
(-0.104991 0.0846336 0)
(-0.118121 0.0654794 0)
(-0.127443 0.0422935 0)
(-0.132686 0.0165206 0)
(-0.133674 -0.0104536 0)
(-0.130288 -0.037208 0)
(-0.122473 -0.0621855 0)
(-0.110297 -0.083613 0)
(-0.0940654 -0.0994698 0)
(-0.0744827 -0.107542 0)
(-0.0528098 -0.1056 0)
(-0.0310255 -0.0917184 0)
(-0.0125045 -0.0647476 0)
(-0.00230237 -0.025035 0)
(-0.00247033 0.0307225 0)
(-0.0129689 0.077097 0)
(-0.031524 0.107345 0)
(-0.0529114 0.122453 0)
(-0.0739239 0.124543 0)
(-0.092898 0.116064 0)
(-0.108872 0.0993812 0)
(-0.121351 0.0765971 0)
(-0.130131 0.0495097 0)
(-0.135129 0.0196702 0)
(-0.136271 -0.0115 0)
(-0.133441 -0.042564 0)
(-0.126477 -0.0719161 0)
(-0.115239 -0.0976412 0)
(-0.0997379 -0.11742 0)
(-0.0803601 -0.128526 0)
(-0.058103 -0.127973 0)
(-0.0348744 -0.112873 0)
(-0.0144192 -0.0810462 0)
(-0.0027568 -0.0320324 0)
(-0.0028962 0.0379447 0)
(-0.0145553 0.0933607 0)
(-0.0343039 0.127907 0)
(-0.0560826 0.143786 0)
(-0.0764954 0.14437 0)
(-0.0941104 0.13311 0)
(-0.108344 0.113057 0)
(-0.119101 0.0867146 0)
(-0.126526 0.0560552 0)
(-0.130793 0.0226522 0)
(-0.131976 -0.0121425 0)
(-0.129983 -0.046995 0)
(-0.124543 -0.0803737 0)
(-0.115261 -0.110337 0)
(-0.101765 -0.134347 0)
(-0.0839572 -0.149172 0)
(-0.0623521 -0.150946 0)
(-0.038548 -0.135516 0)
(-0.0165136 -0.0991938 0)
(-0.0033213 -0.0401465 0)
(-0.00346407 0.0461383 0)
(-0.0163339 0.110884 0)
(-0.0367382 0.148942 0)
(-0.0577258 0.164441 0)
(-0.0759281 0.162513 0)
(-0.0904266 0.147871 0)
(-0.101251 0.124325 0)
(-0.108868 0.0947409 0)
(-0.11387 0.0611746 0)
(-0.116752 0.0251055 0)
(-0.117776 -0.0123124 0)
(-0.116903 -0.0499874 0)
(-0.113766 -0.0866155 0)
(-0.107705 -0.12039 0)
(-0.0978844 -0.148707 0)
(-0.0835632 -0.167913 0)
(-0.0644931 -0.173201 0)
(-0.0415966 -0.158839 0)
(-0.0187446 -0.118987 0)
(-0.00403774 -0.0495278 0)
(-0.00427365 0.0555252 0)
(-0.0183653 0.129379 0)
(-0.0384121 0.169362 0)
(-0.0566889 0.182711 0)
(-0.0703081 0.176977 0)
(-0.0792907 0.158365 0)
(-0.0845608 0.131433 0)
(-0.087294 0.0992831 0)
(-0.0885951 0.0639061 0)
(-0.089301 0.0265411 0)
(-0.0898789 -0.0119931 0)
(-0.0903719 -0.0509897 0)
(-0.0903625 -0.0895385 0)
(-0.0889609 -0.126171 0)
(-0.0848658 -0.158447 0)
(-0.0765697 -0.182504 0)
(-0.0627632 -0.192673 0)
(-0.0431828 -0.181397 0)
(-0.0209829 -0.139902 0)
(-0.00496704 -0.0603451 0)
(-0.00547596 0.0664374 0)
(-0.0206236 0.148178 0)
(-0.0383712 0.187273 0)
(-0.0508407 0.195973 0)
(-0.0564983 0.184967 0)
(-0.0568788 0.162023 0)
(-0.054062 0.132244 0)
(-0.0499928 0.0987171 0)
(-0.04625 0.063148 0)
(-0.0439536 0.0263763 0)
(-0.0437444 -0.0112344 0)
(-0.045768 -0.0494748 0)
(-0.0496328 -0.0879716 0)
(-0.0543418 -0.125806 0)
(-0.0582421 -0.16101 0)
(-0.0590788 -0.189891 0)
(-0.0542631 -0.206245 0)
(-0.0417368 -0.200703 0)
(-0.0228745 -0.160773 0)
(-0.00617748 -0.0727362 0)
(-0.00721549 0.07924 0)
(-0.0226426 0.16566 0)
(-0.0343384 0.199303 0)
(-0.0361131 0.200241 0)
(-0.0292774 0.182738 0)
(-0.0174675 0.155753 0)
(-0.00398721 0.124422 0)
(0.00860913 0.0913957 0)
(0.0184887 0.0578306 0)
(0.0244337 0.0240299 0)
(0.0257366 -0.0101556 0)
(0.022154 -0.0450456 0)
(0.0139436 -0.0808671 0)
(0.00198884 -0.117413 0)
(-0.0120082 -0.153514 0)
(-0.0253306 -0.186197 0)
(-0.0341807 -0.209425 0)
(-0.0342139 -0.21258 0)
(-0.0234335 -0.179137 0)
(-0.00765295 -0.0866208 0)
(-0.00929341 0.0945086 0)
(-0.02241 0.178562 0)
(-0.0208915 0.19993 0)
(-0.00468313 0.190021 0)
(0.0200171 0.16591 0)
(0.0473792 0.136496 0)
(0.0733451 0.106026 0)
(0.0953001 0.0761713 0)
(0.111627 0.0473016 0)
(0.121344 0.0191407 0)
(0.123861 -0.00891137 0)
(0.11888 -0.0376023 0)
(0.106408 -0.0676761 0)
(0.0869134 -0.0996525 0)
(0.0616351 -0.133399 0)
(0.0330695 -0.167269 0)
(0.00553238 -0.196511 0)
(-0.0145389 -0.21079 0)
(-0.019945 -0.19064 0)
(-0.00891666 -0.101759 0)
(-0.00977106 0.113831 0)
(-0.0133444 0.181307 0)
(0.0142277 0.181421 0)
(0.057906 0.159231 0)
(0.105122 0.130908 0)
(0.14943 0.102722 0)
(0.187495 0.0767991 0)
(0.217678 0.0533864 0)
(0.239263 0.0320163 0)
(0.251916 0.0119731 0)
(0.255388 -0.00756984 0)
(0.249401 -0.0275263 0)
(0.233633 -0.0488848 0)
(0.207841 -0.072664 0)
(0.172176 -0.0997162 0)
(0.127831 -0.130127 0)
(0.0779852 -0.161739 0)
(0.0292202 -0.187309 0)
(-0.00526997 -0.188532 0)
(-0.00765565 -0.118263 0)
(0.00111308 0.128886 0)
(0.0243975 0.154781 0)
(0.0970238 0.128676 0)
(0.176281 0.0999009 0)
(0.24581 0.075143 0)
(0.303301 0.0548954 0)
(0.348784 0.0385143 0)
(0.382859 0.0250337 0)
(0.406316 0.0135762 0)
(0.419754 0.00341063 0)
(0.423402 -0.00611994 0)
(0.417075 -0.0156828 0)
(0.400148 -0.0260556 0)
(0.371559 -0.0382092 0)
(0.329941 -0.0533755 0)
(0.274063 -0.0729611 0)
(0.203407 -0.0979665 0)
(0.119863 -0.127454 0)
(0.0392925 -0.152813 0)
(0.00569623 -0.125429 0)
(0.0699974 0.0606642 0)
(0.153723 0.0312718 0)
(0.282687 0.00833698 0)
(0.389952 -0.00102181 0)
(0.46761 -0.00480789 0)
(0.524472 -0.00643181 0)
(0.566063 -0.00712058 0)
(0.595544 -0.00730021 0)
(0.615029 -0.00707308 0)
(0.625804 -0.00642348 0)
(0.62845 -0.00530485 0)
(0.622901 -0.00367807 0)
(0.608426 -0.00155428 0)
(0.583502 0.000961674 0)
(0.545618 0.0035831 0)
(0.49104 0.00562993 0)
(0.413792 0.00552792 0)
(0.304514 -0.00030091 0)
(0.168986 -0.01889 0)
(0.0722289 -0.0458448 0)
(0.397754 -0.21081 0)
(0.554081 -0.189748 0)
(0.67675 -0.136328 0)
(0.751717 -0.0984572 0)
(0.795451 -0.0722501 0)
(0.823602 -0.0537654 0)
(0.842655 -0.0403874 0)
(0.855449 -0.0301136 0)
(0.863538 -0.0215083 0)
(0.867772 -0.013541 0)
(0.868523 -0.00540071 0)
(0.865788 0.00364003 0)
(0.85917 0.014353 0)
(0.847751 0.0276947 0)
(0.829806 0.045027 0)
(0.802151 0.0684286 0)
(0.757976 0.101022 0)
(0.680931 0.14774 0)
(0.549245 0.212829 0)
(0.36767 0.232645 0)
)
;

boundaryField
{
    movingWall
    {
        type            fixedValue;
        value           uniform (1 0 0);
    }
    fixedWalls
    {
        type            noSlip;
    }
    frontAndBack
    {
        type            empty;
    }
}


// ************************************************************************* //
