/*--------------------------------*- C++ -*----------------------------------*\
| =========                 |                                                 |
| \\      /  F ield         | OpenFOAM: The Open Source CFD Toolbox           |
|  \\    /   O peration     | Version:  v2012                                 |
|   \\  /    A nd           | Website:  www.openfoam.com                      |
|    \\/     M anipulation  |                                                 |
\*---------------------------------------------------------------------------*/
FoamFile
{
    version     2.0;
    format      ascii;
    class       volScalarField;
    location    "1.7";
    object      p;
}
// * * * * * * * * * * * * * * * * * * * * * * * * * * * * * * * * * * * * * //

dimensions      [0 2 -2 0 0 0 0];


internalField   nonuniform List<scalar> 
400
(
-0.0396143
-0.0444949
-0.0501694
-0.0541736
-0.0551396
-0.052497
-0.0462532
-0.0368145
-0.0248568
-0.0112414
0.00304627
0.0169502
0.0294051
0.0394145
0.0461522
0.0490959
0.0481974
0.0440779
0.0382313
0.0332552
-0.0347757
-0.0397913
-0.0441807
-0.0467932
-0.0470064
-0.0444223
-0.0390213
-0.0310971
-0.0211649
-0.00990036
0.00190947
0.0134159
0.0237655
0.0321695
0.0379875
0.0408285
0.0406769
0.0379709
0.0334355
0.0283309
-0.0287794
-0.0356619
-0.0403789
-0.0427088
-0.0427352
-0.0402649
-0.0353333
-0.0282175
-0.0193625
-0.00934301
0.0011692
0.0114439
0.02074
0.0283646
0.0337396
0.036482
0.036514
0.0340659
0.0291583
0.0221364
-0.0237686
-0.0331322
-0.0389413
-0.0415761
-0.0417004
-0.0393084
-0.0345228
-0.0276562
-0.0191416
-0.00951162
0.00061641
0.0105656
0.0196358
0.0271511
0.0325139
0.035274
0.0352438
0.0324597
0.0263739
0.0167686
-0.0211312
-0.0329934
-0.0400454
-0.0431049
-0.0433234
-0.0408584
-0.0359238
-0.0288862
-0.0201916
-0.0103593
1.63977e-05
0.0102776
0.0197272
0.0276644
0.0334286
0.0364636
0.036449
0.0332391
0.0258043
0.0135375
-0.0218783
-0.0361375
-0.0443915
-0.0478048
-0.0479589
-0.0451594
-0.0397128
-0.0320489
-0.0226421
-0.0120167
-0.000764425
0.0104532
0.0209152
0.0298656
0.036547
0.0402638
0.040538
0.0370367
0.0282873
0.0133807
-0.0268756
-0.0434213
-0.0527313
-0.0562858
-0.0560825
-0.0525766
-0.0461728
-0.037372
-0.0266853
-0.0146508
-0.00186693
0.010989
0.0231568
0.0338037
0.042047
0.047017
0.0480417
0.0445711
0.0346687
0.0171388
-0.037015
-0.0557374
-0.0658564
-0.0691918
-0.0681923
-0.0634864
-0.0555908
-0.0450841
-0.0325153
-0.0184342
-0.00344267
0.0117689
0.0263991
0.0395283
0.0501256
0.0571101
0.0595647
0.0566588
0.0459069
0.0257718
-0.0533482
-0.0741178
-0.0846689
-0.0872442
-0.0848331
-0.0782863
-0.068256
-0.0554044
-0.0403113
-0.0235233
-0.00562682
0.0126938
0.030611
0.0471229
0.0610376
0.0710241
0.0758531
0.0743124
0.0632108
0.0405414
-0.0772104
-0.0998261
-0.110225
-0.111239
-0.106559
-0.0973379
-0.0843943
-0.0684761
-0.0501759
-0.0300059
-0.00849936
0.0137057
0.0357925
0.0567032
0.0750886
0.0893356
0.0978225
0.0988131
0.08817
0.063189
-0.110385
-0.134471
-0.14377
-0.142017
-0.133861
-0.120869
-0.104062
-0.0842647
-0.0620436
-0.0378248
-0.0120267
0.0148246
0.0419891
0.0684103
0.0926165
0.112701
0.126569
0.131777
0.1229
0.0961556
-0.155383
-0.180165
-0.186764
-0.180392
-0.167042
-0.148832
-0.127006
-0.102425
-0.0755639
-0.0466803
-0.0159877
0.0161963
0.0493102
0.0824001
0.113956
0.141815
0.163351
0.175206
0.170218
0.142905
-0.215989
-0.239765
-0.240875
-0.227014
-0.206026
-0.180701
-0.152474
-0.122144
-0.0899758
-0.055934
-0.0199054
0.0181301
0.0579317
0.098805
0.139362
0.177309
0.209509
0.231504
0.233882
0.208484
-0.298464
-0.317374
-0.307985
-0.282171
-0.250111
-0.215252
-0.179049
-0.142026
-0.104031
-0.0645666
-0.0230349
0.0210823
0.0680472
0.117646
0.168879
0.2196
0.266348
0.303522
0.319054
0.300646
-0.413595
-0.41884
-0.389939
-0.345369
-0.297587
-0.250291
-0.204498
-0.160037
-0.116022
-0.0712599
-0.0244833
0.0254998
0.079664
0.138561
0.201975
0.268427
0.334639
0.394195
0.43254
0.431479
-0.577896
-0.549589
-0.485856
-0.413273
-0.344299
-0.281733
-0.225256
-0.173286
-0.123761
-0.0745257
-0.023473
0.0314141
0.0920148
0.159951
0.236308
0.321088
0.412177
0.503386
0.579849
0.617342
-0.819212
-0.711146
-0.587839
-0.477041
-0.382179
-0.302901
-0.236203
-0.178079
-0.124781
-0.0729976
-0.0197017
0.0380087
0.103013
0.178249
0.266669
0.370836
0.491261
0.624013
0.761802
0.882626
-1.23849
-0.931292
-0.699556
-0.535816
-0.409983
-0.313134
-0.237469
-0.175179
-0.120243
-0.0680465
-0.0146745
0.0436607
0.110848
0.191357
0.290688
0.415521
0.571457
0.761709
1.00732
1.31774
-2.07403
-1.28781
-0.845861
-0.604909
-0.441237
-0.325129
-0.240727
-0.175023
-0.119228
-0.067272
-0.0143164
0.0440527
0.112731
0.197789
0.307834
0.455553
0.656756
0.93537
1.38691
2.13053
-2.63639
-1.28162
-0.730697
-0.492508
-0.347607
-0.251637
-0.185272
-0.135499
-0.0943118
-0.0564748
-0.0180013
0.024699
0.0755197
0.139556
0.224609
0.344016
0.520597
0.803257
1.3753
2.60138
)
;

boundaryField
{
    movingWall
    {
        type            fixedValue;
        value           uniform 0;
    }
    fixedWalls
    {
        type            zeroGradient;
    }
    frontAndBack
    {
        type            empty;
    }
}


// ************************************************************************* //
