/*--------------------------------*- C++ -*----------------------------------*\
| =========                 |                                                 |
| \\      /  F ield         | OpenFOAM: The Open Source CFD Toolbox           |
|  \\    /   O peration     | Version:  v2012                                 |
|   \\  /    A nd           | Website:  www.openfoam.com                      |
|    \\/     M anipulation  |                                                 |
\*---------------------------------------------------------------------------*/
FoamFile
{
    version     2.0;
    format      ascii;
    class       volScalarField;
    location    "0.5";
    object      p;
}
// * * * * * * * * * * * * * * * * * * * * * * * * * * * * * * * * * * * * * //

dimensions      [0 2 -2 0 0 0 0];


internalField   nonuniform List<scalar> 
400
(
-0.0396141
-0.0444947
-0.050169
-0.0541729
-0.0551388
-0.0524962
-0.0462525
-0.036814
-0.0248566
-0.0112412
0.00304637
0.0169503
0.0294052
0.0394144
0.0461519
0.0490955
0.048197
0.0440777
0.0382314
0.0332555
-0.0347756
-0.0397912
-0.0441805
-0.0467929
-0.0470059
-0.0444217
-0.0390206
-0.0310966
-0.0211646
-0.00990025
0.00190945
0.0134158
0.0237655
0.0321696
0.0379876
0.0408285
0.0406769
0.0379709
0.0334357
0.0283312
-0.0287794
-0.0356618
-0.0403788
-0.0427087
-0.0427349
-0.0402645
-0.0353327
-0.0282169
-0.0193621
-0.00934278
0.00116922
0.0114438
0.02074
0.0283647
0.0337398
0.0364822
0.0365143
0.0340661
0.0291585
0.0221368
-0.0237687
-0.0331321
-0.0389412
-0.041576
-0.0417003
-0.0393083
-0.0345225
-0.0276557
-0.0191411
-0.00951121
0.000616609
0.0105656
0.0196357
0.0271511
0.0325141
0.0352743
0.0352442
0.0324601
0.0263743
0.0167692
-0.0211315
-0.0329933
-0.0400453
-0.0431047
-0.0433233
-0.0408584
-0.0359237
-0.028886
-0.0201911
-0.0103588
1.68247e-05
0.0102779
0.0197273
0.0276644
0.0334287
0.0364639
0.0364495
0.0332396
0.0258049
0.0135382
-0.0218788
-0.0361375
-0.0443913
-0.0478045
-0.0479586
-0.0451593
-0.0397127
-0.0320488
-0.0226418
-0.0120163
-0.000763873
0.0104537
0.0209155
0.0298658
0.0365471
0.040264
0.0405383
0.0370373
0.028288
0.0133815
-0.0268761
-0.0434214
-0.0527312
-0.0562855
-0.0560821
-0.0525763
-0.0461726
-0.0373719
-0.0266851
-0.0146504
-0.00186642
0.0109896
0.0231573
0.0338041
0.0420472
0.0470172
0.048042
0.0445716
0.0346694
0.0171397
-0.0370153
-0.0557376
-0.0658564
-0.0691915
-0.0681918
-0.0634859
-0.0555904
-0.0450839
-0.0325152
-0.018434
-0.00344229
0.0117694
0.0263997
0.0395288
0.0501261
0.0571104
0.059565
0.0566592
0.0459074
0.0257726
-0.0533482
-0.0741178
-0.0846688
-0.087244
-0.0848327
-0.0782858
-0.0682554
-0.0554039
-0.0403109
-0.023523
-0.0056265
0.0126942
0.0306116
0.0471235
0.0610382
0.0710246
0.0758535
0.0743128
0.0632113
0.0405421
-0.07721
-0.0998258
-0.110224
-0.111239
-0.106559
-0.0973374
-0.0843936
-0.0684754
-0.0501752
-0.0300054
-0.00849894
0.0137061
0.035793
0.0567037
0.0750892
0.0893362
0.097823
0.0988135
0.0881703
0.0631894
-0.110385
-0.134471
-0.143769
-0.142016
-0.133861
-0.120869
-0.104062
-0.0842639
-0.0620428
-0.037824
-0.0120261
0.0148251
0.0419895
0.0684107
0.092617
0.112702
0.12657
0.131778
0.1229
0.0961559
-0.155383
-0.180164
-0.186764
-0.180392
-0.167042
-0.148831
-0.127005
-0.102424
-0.0755631
-0.0466794
-0.0159868
0.016197
0.0493108
0.0824005
0.113956
0.141815
0.163352
0.175207
0.170218
0.142905
-0.215988
-0.239764
-0.240874
-0.227014
-0.206025
-0.1807
-0.152473
-0.122144
-0.0899751
-0.0559331
-0.0199046
0.0181309
0.0579324
0.0988055
0.139362
0.177309
0.209509
0.231504
0.233883
0.208484
-0.298463
-0.317373
-0.307984
-0.282171
-0.250111
-0.215252
-0.179049
-0.142025
-0.10403
-0.0645659
-0.023034
0.0210832
0.068048
0.117647
0.168879
0.2196
0.266348
0.303522
0.319054
0.300646
-0.413594
-0.41884
-0.389938
-0.345369
-0.297587
-0.250291
-0.204498
-0.160036
-0.116022
-0.0712593
-0.0244826
0.0255005
0.0796647
0.138561
0.201975
0.268427
0.334639
0.394195
0.43254
0.431479
-0.577896
-0.549589
-0.485856
-0.413273
-0.344299
-0.281733
-0.225256
-0.173286
-0.12376
-0.0745251
-0.0234724
0.0314147
0.0920154
0.159951
0.236309
0.321088
0.412177
0.503386
0.579849
0.617342
-0.819211
-0.711146
-0.587839
-0.477041
-0.382179
-0.302901
-0.236203
-0.178078
-0.124781
-0.072997
-0.0197011
0.0380093
0.103013
0.17825
0.266669
0.370836
0.491261
0.624013
0.761802
0.882625
-1.23848
-0.931291
-0.699556
-0.535816
-0.409983
-0.313134
-0.237469
-0.175179
-0.120242
-0.068046
-0.014674
0.0436613
0.110849
0.191357
0.290688
0.415521
0.571458
0.761709
1.00732
1.31774
-2.07403
-1.28781
-0.845861
-0.60491
-0.441237
-0.32513
-0.240727
-0.175023
-0.119228
-0.0672716
-0.0143158
0.0440533
0.112731
0.197789
0.307834
0.455554
0.656756
0.93537
1.38691
2.13053
-2.63639
-1.28162
-0.730697
-0.492509
-0.347607
-0.251637
-0.185272
-0.135499
-0.0943117
-0.0564745
-0.0180008
0.0246997
0.0755205
0.139556
0.22461
0.344017
0.520597
0.803257
1.3753
2.60138
)
;

boundaryField
{
    movingWall
    {
        type            fixedValue;
        value           uniform 0;
    }
    fixedWalls
    {
        type            zeroGradient;
    }
    frontAndBack
    {
        type            empty;
    }
}


// ************************************************************************* //
