/*--------------------------------*- C++ -*----------------------------------*\
| =========                 |                                                 |
| \\      /  F ield         | OpenFOAM: The Open Source CFD Toolbox           |
|  \\    /   O peration     | Version:  v2012                                 |
|   \\  /    A nd           | Website:  www.openfoam.com                      |
|    \\/     M anipulation  |                                                 |
\*---------------------------------------------------------------------------*/
FoamFile
{
    version     2.0;
    format      ascii;
    class       surfaceScalarField;
    location    "0.5";
    object      phi;
}
// * * * * * * * * * * * * * * * * * * * * * * * * * * * * * * * * * * * * * //

dimensions      [0 3 -1 0 0 0 0];
oriented        oriented;


internalField   nonuniform List<scalar> 
760
(
1.00772e-08
-1.00772e-08
-2.37002e-08
3.37771e-08
-1.03475e-07
7.97746e-08
-2.14608e-07
1.11134e-07
-3.4051e-07
1.25904e-07
-4.65932e-07
1.25422e-07
-5.78001e-07
1.12068e-07
-6.66551e-07
8.85499e-08
-7.24121e-07
5.75684e-08
-7.459e-07
2.17791e-08
-7.29779e-07
-1.61201e-08
-6.76504e-07
-5.32744e-08
-5.89913e-07
-8.659e-08
-4.77187e-07
-1.12726e-07
-3.48992e-07
-1.28195e-07
-2.19335e-07
-1.29658e-07
-1.04847e-07
-1.14489e-07
-2.32026e-08
-8.16447e-08
1.07195e-08
-3.39215e-08
1.07203e-08
-3.21829e-08
2.21061e-08
-1.59283e-07
1.60877e-07
-3.74441e-07
2.94932e-07
-6.50874e-07
3.87567e-07
-9.55676e-07
4.30705e-07
-1.2563e-06
4.26044e-07
-1.52386e-06
3.79629e-07
-1.73475e-06
2.99446e-07
-1.87135e-06
1.94163e-07
-1.9223e-06
7.27306e-08
-1.88284e-06
-5.5577e-08
-1.75514e-06
-1.80982e-07
-1.54864e-06
-2.93087e-07
-1.28038e-06
-3.80988e-07
-9.74793e-07
-4.33777e-07
-6.62814e-07
-4.41638e-07
-3.79538e-07
-3.97765e-07
-1.59976e-07
-3.01208e-07
-3.16121e-08
-1.62285e-07
-2.08912e-08
-8.04973e-08
1.02604e-07
-3.04886e-07
3.85265e-07
-6.45029e-07
6.35074e-07
-1.06124e-06
8.03779e-07
-1.50901e-06
8.78475e-07
-1.94477e-06
8.61799e-07
-2.32962e-06
7.64485e-07
-2.63154e-06
6.0136e-07
-2.82644e-06
3.89066e-07
-2.89885e-06
1.45138e-07
-2.84231e-06
-1.12113e-07
-2.65988e-06
-3.63412e-07
-2.36454e-06
-5.88433e-07
-1.9794e-06
-7.66119e-07
-1.53743e-06
-8.75748e-07
-1.08001e-06
-8.99057e-07
-6.54051e-07
-8.23725e-07
-3.07054e-07
-6.48206e-07
-8.007e-08
-3.8927e-07
-1.00961e-07
-1.23132e-07
2.25737e-07
-4.392e-07
7.01334e-07
-8.95957e-07
1.09183e-06
-1.43803e-06
1.34585e-06
-2.00964e-06
1.45009e-06
-2.55859e-06
1.41075e-06
-3.03923e-06
1.24512e-06
-3.41428e-06
9.76412e-07
-3.65586e-06
6.30645e-07
-3.74602e-06
2.35301e-07
-3.6772e-06
-1.8093e-07
-3.45271e-06
-5.87905e-07
-3.08725e-06
-9.53901e-07
-2.60727e-06
-1.2461e-06
-2.05087e-06
-1.43215e-06
-1.46661e-06
-1.48331e-06
-9.10921e-07
-1.37941e-06
-4.4376e-07
-1.11537e-06
-1.22994e-07
-7.10037e-07
-2.23956e-07
-1.60742e-07
3.86478e-07
-5.61841e-07
1.10243e-06
-1.12753e-06
1.65752e-06
-1.78545e-06
2.00377e-06
-2.46829e-06
2.13292e-06
-3.11623e-06
2.0587e-06
-3.67875e-06
1.80764e-06
-4.1155e-06
1.41315e-06
-4.39664e-06
9.1179e-07
-4.503e-06
3.41663e-07
-4.42623e-06
-2.57703e-07
-4.16924e-06
-8.44891e-07
-3.74694e-06
-1.3762e-06
-3.18697e-06
-1.80606e-06
-2.53024e-06
-2.08888e-06
-1.8306e-06
-2.18296e-06
-1.15321e-06
-2.0568e-06
-5.71319e-07
-1.69726e-06
-1.61601e-07
-1.11975e-06
-3.85558e-07
-1.95429e-07
5.81906e-07
-6.76484e-07
1.58349e-06
-1.34454e-06
2.32558e-06
-2.10974e-06
2.76897e-06
-2.89317e-06
2.91635e-06
-3.62827e-06
2.7938e-06
-4.2612e-06
2.44057e-06
-4.75034e-06
1.90229e-06
-5.06554e-06
1.22699e-06
-5.18744e-06
4.63565e-07
-5.10715e-06
-3.37991e-07
-4.82659e-06
-1.12546e-06
-4.35941e-06
-1.84338e-06
-3.73247e-06
-2.433e-06
-2.98738e-06
-2.83397e-06
-2.18163e-06
-2.98871e-06
-1.38851e-06
-2.84992e-06
-6.9519e-07
-2.39057e-06
-1.98674e-07
-1.61627e-06
-5.84232e-07
-2.29147e-07
8.11052e-07
-7.87009e-07
2.14135e-06
-1.5515e-06
3.09007e-06
-2.41482e-06
3.63229e-06
-3.28686e-06
3.78839e-06
-4.09562e-06
3.60257e-06
-4.78585e-06
3.13079e-06
-5.31675e-06
2.43319e-06
-5.65965e-06
1.5699e-06
-5.79619e-06
6.00101e-07
-5.71727e-06
-4.16905e-07
-5.4232e-06
-1.41952e-06
-4.9249e-06
-2.34168e-06
-4.24622e-06
-3.11169e-06
-3.42698e-06
-3.65322e-06
-2.52606e-06
-3.88963e-06
-1.62359e-06
-3.75238e-06
-8.20869e-07
-3.1933e-06
-2.36825e-07
-2.20031e-06
-8.21057e-07
-2.63487e-07
1.07454e-06
-8.96349e-07
2.77421e-06
-1.75064e-06
3.94437e-06
-2.69995e-06
4.58159e-06
-3.64393e-06
4.73237e-06
-4.50739e-06
4.46603e-06
-5.23645e-06
3.85986e-06
-5.79394e-06
2.99067e-06
-6.15501e-06
1.93096e-06
-6.30382e-06
7.48912e-07
-6.23167e-06
-4.89053e-07
-5.93671e-06
-1.71448e-06
-5.42545e-06
-2.85294e-06
-4.71604e-06
-3.82109e-06
-3.84314e-06
-4.52612e-06
-2.8636e-06
-4.86917e-06
-1.86178e-06
-4.7542e-06
-9.5237e-07
-4.10271e-06
-2.78192e-07
-2.87449e-06
-1.09925e-06
-2.99745e-07
1.37428e-06
-1.00613e-06
3.4806e-06
-1.94082e-06
4.87906e-06
-2.95783e-06
5.59859e-06
-3.94859e-06
5.72314e-06
-4.83832e-06
5.35576e-06
-5.57868e-06
4.60021e-06
-6.13992e-06
3.55192e-06
-6.5041e-06
2.29515e-06
-6.66004e-06
9.04848e-07
-6.60032e-06
-5.48776e-07
-6.32057e-06
-1.99424e-06
-5.82109e-06
-3.35241e-06
-5.11112e-06
-4.53106e-06
-4.2156e-06
-5.42164e-06
-3.18419e-06
-5.90058e-06
-2.10086e-06
-5.83754e-06
-1.09138e-06
-5.11219e-06
-3.24371e-07
-3.6415e-06
-1.42362e-06
-3.39241e-07
1.71353e-06
-1.11674e-06
4.2581e-06
-2.11665e-06
5.87896e-06
-3.17268e-06
6.65463e-06
-4.17182e-06
6.72228e-06
-5.0454e-06
6.22934e-06
-5.75648e-06
5.31129e-06
-6.28784e-06
4.08328e-06
-6.63233e-06
2.63963e-06
-6.786e-06
1.05852e-06
-6.74407e-06
-5.90705e-07
-6.49959e-06
-2.23871e-06
-6.04499e-06
-3.80702e-06
-5.37692e-06
-5.19913e-06
-4.50497e-06
-6.29358e-06
-3.46428e-06
-6.94127e-06
-2.33089e-06
-6.97092e-06
-1.23656e-06
-6.20652e-06
-3.76507e-07
-4.50156e-06
-1.80013e-06
-3.83803e-07
2.09733e-06
-1.22732e-06
5.10162e-06
-2.26693e-06
6.91857e-06
-3.3169e-06
7.7046e-06
-4.26675e-06
7.67213e-06
-5.06266e-06
7.02525e-06
-5.68704e-06
5.93567e-06
-6.14136e-06
4.5376e-06
-6.43362e-06
2.9319e-06
-6.57004e-06
1.19493e-06
-6.55012e-06
-6.10618e-07
-6.36479e-06
-2.42404e-06
-5.99741e-06
-4.1744e-06
-5.42864e-06
-5.7679e-06
-4.64633e-06
-7.07589e-06
-3.66155e-06
-7.92605e-06
-2.53097e-06
-8.1015e-06
-1.38245e-06
-7.35505e-06
-4.35408e-07
-5.44859e-06
-2.23553e-06
-4.36419e-07
2.53375e-06
-1.33494e-06
6.00014e-06
-2.37097e-06
7.9546e-06
-3.34467e-06
8.6783e-06
-4.16083e-06
8.48829e-06
-4.79332e-06
7.65773e-06
-5.25376e-06
6.39611e-06
-5.56889e-06
4.85274e-06
-5.76592e-06
3.12893e-06
-5.86374e-06
1.29274e-06
-5.86789e-06
-6.06464e-07
-5.76825e-06
-2.52368e-06
-5.53915e-06
-4.4035e-06
-5.14312e-06
-6.16393e-06
-4.54031e-06
-7.67871e-06
-3.70666e-06
-8.75969e-06
-2.66343e-06
-9.14473e-06
-1.51709e-06
-8.50139e-06
-5.01581e-07
-6.4641e-06
-2.73712e-06
-5.01827e-07
3.03558e-06
-1.43145e-06
6.92977e-06
-2.38979e-06
8.91293e-06
-3.17931e-06
9.46782e-06
-3.74224e-06
9.05123e-06
-4.09757e-06
8.01306e-06
-4.29682e-06
6.59536e-06
-4.39722e-06
4.95313e-06
-4.44728e-06
3.17899e-06
-4.47951e-06
1.32498e-06
-4.50669e-06
-5.79283e-07
-4.51949e-06
-2.51089e-06
-4.48529e-06
-4.4377e-06
-4.34928e-06
-6.29994e-06
-4.04081e-06
-7.98718e-06
-3.49031e-06
-9.3102e-06
-2.66336e-06
-9.97168e-06
-1.61689e-06
-9.54786e-06
-5.748e-07
-7.50618e-06
-3.31192e-06
-5.85723e-07
3.6213e-06
-1.4934e-06
7.83745e-06
-2.2462e-06
9.66573e-06
-2.68889e-06
9.91051e-06
-2.83674e-06
9.19907e-06
-2.77438e-06
7.95071e-06
-2.60119e-06
6.42216e-06
-2.40535e-06
4.75729e-06
-2.25422e-06
3.02786e-06
-2.19171e-06
1.26247e-06
-2.23746e-06
-5.33527e-07
-2.38541e-06
-2.36294e-06
-2.60098e-06
-4.22213e-06
-2.81799e-06
-6.08293e-06
-2.93847e-06
-7.86671e-06
-2.84232e-06
-9.40635e-06
-2.41885e-06
-1.03951e-05
-1.63448e-06
-1.03322e-05
-6.51561e-07
-8.4891e-06
-3.96348e-06
-6.87636e-07
4.30893e-06
-1.45334e-06
8.60315e-06
-1.78074e-06
9.99314e-06
-1.64057e-06
9.77034e-06
-1.17025e-06
8.72876e-06
-5.36151e-07
7.31661e-06
1.16866e-07
5.76915e-06
6.79244e-07
4.19492e-06
1.07497e-06
2.63213e-06
1.25605e-06
1.08139e-06
1.19872e-06
-4.76195e-07
9.03231e-07
-2.06745e-06
3.97913e-07
-3.71681e-06
-2.52844e-07
-5.43217e-06
-9.38627e-07
-7.18092e-06
-1.49783e-06
-8.84715e-06
-1.73259e-06
-1.01604e-05
-1.46955e-06
-1.05953e-05
-7.1554e-07
-9.24311e-06
-4.67902e-06
-7.73689e-07
5.08262e-06
-1.12388e-06
8.95335e-06
-6.58776e-07
9.52803e-06
3.7895e-07
8.73261e-06
1.68537e-06
7.42234e-06
3.02053e-06
5.98145e-06
4.21929e-06
4.57039e-06
5.17649e-06
3.23772e-06
5.8275e-06
1.98112e-06
6.13319e-06
7.75697e-07
6.07137e-06
-4.14376e-07
5.63465e-06
-1.63073e-06
4.83467e-06
-2.91682e-06
3.71366e-06
-4.31116e-06
2.36427e-06
-5.83154e-06
9.55358e-07
-7.43823e-06
-2.48145e-07
-8.95688e-06
-8.99764e-07
-9.94366e-06
-7.08754e-07
-9.43412e-06
-5.38777e-06
-6.88929e-07
5.77155e-06
-1.64651e-08
8.28088e-06
1.79797e-06
7.71359e-06
4.07623e-06
6.45436e-06
6.36845e-06
5.13012e-06
8.42932e-06
3.92057e-06
1.01351e-05
2.86459e-06
1.14286e-05
1.9442e-06
1.22841e-05
1.12563e-06
1.26871e-05
3.72763e-07
1.26242e-05
-3.51468e-07
1.20804e-05
-1.08696e-06
1.10414e-05
-1.87785e-06
9.50437e-06
-2.77413e-06
7.50093e-06
-3.8281e-06
5.13924e-06
-5.07654e-06
2.66873e-06
-6.48637e-06
5.64627e-07
-7.83955e-06
-4.45865e-07
-8.42363e-06
-5.83364e-06
1.83876e-07
5.58768e-06
3.04718e-06
5.41758e-06
6.87957e-06
3.8812e-06
1.05662e-05
2.76773e-06
1.37399e-05
1.95638e-06
1.63143e-05
1.34622e-06
1.83004e-05
8.78434e-07
1.97366e-05
5.08095e-07
2.06578e-05
2.04356e-07
2.10848e-05
-5.4168e-08
2.10179e-05
-2.84638e-07
2.04375e-05
-5.06522e-07
1.93012e-05
-7.41574e-07
1.75479e-05
-1.0208e-06
1.51088e-05
-1.38901e-06
1.19417e-05
-1.90947e-06
8.11461e-06
-2.65925e-06
3.99363e-06
-3.71857e-06
6.67417e-07
-5.09742e-06
-5.16622e-06
4.12593e-06
1.46175e-06
1.11336e-05
-1.59007e-06
1.7009e-05
-1.99423e-06
2.14855e-05
-1.70872e-06
2.48268e-05
-1.38497e-06
2.72837e-05
-1.11063e-06
2.90539e-05
-8.91782e-07
3.02738e-05
-7.11798e-07
3.10283e-05
-5.50209e-07
3.13632e-05
-3.89031e-07
3.12914e-05
-2.12816e-07
3.07926e-05
-7.75178e-09
2.98116e-05
2.39442e-07
2.82478e-05
5.43017e-07
2.59411e-05
9.1766e-07
2.26582e-05
1.37348e-06
1.81067e-05
1.89218e-06
1.20233e-05
2.36487e-06
4.68273e-06
2.24314e-06
-4.8349e-07
2.14348e-05
3.13749e-05
3.59838e-05
3.87343e-05
4.05004e-05
4.16726e-05
4.24626e-05
4.29812e-05
4.32877e-05
4.34118e-05
4.33626e-05
4.31303e-05
4.26828e-05
4.19556e-05
4.08276e-05
3.90647e-05
3.62036e-05
3.1217e-05
2.0812e-05
)
;

boundaryField
{
    movingWall
    {
        type            calculated;
        value           nonuniform List<scalar> 
20
(
-1.99731e-05
-1.15302e-05
-6.60307e-06
-4.45927e-06
-3.15104e-06
-2.28287e-06
-1.68172e-06
-1.23044e-06
-8.56712e-07
-5.13165e-07
-1.63619e-07
2.24588e-07
6.86979e-07
1.27016e-06
2.04572e-06
3.13637e-06
4.75324e-06
7.35147e-06
1.26482e-05
2.03285e-05
)
;
    }
    fixedWalls
    {
        type            calculated;
        value           uniform 0;
    }
    frontAndBack
    {
        type            empty;
        value           nonuniform List<scalar> 0();
    }
}


// ************************************************************************* //
