/*--------------------------------*- C++ -*----------------------------------*\
| =========                 |                                                 |
| \\      /  F ield         | OpenFOAM: The Open Source CFD Toolbox           |
|  \\    /   O peration     | Version:  v2012                                 |
|   \\  /    A nd           | Website:  www.openfoam.com                      |
|    \\/     M anipulation  |                                                 |
\*---------------------------------------------------------------------------*/
FoamFile
{
    version     2.0;
    format      ascii;
    class       volVectorField;
    location    "0.5";
    object      U;
}
// * * * * * * * * * * * * * * * * * * * * * * * * * * * * * * * * * * * * * //

dimensions      [0 1 -1 0 0 0 0];


internalField   nonuniform List<vector> 
400
(
(0.000194686 -0.000192333 0)
(4.86733e-05 0.000125222 0)
(-0.00111832 0.000501303 0)
(-0.00308894 0.00075823 0)
(-0.00552386 0.00088079 0)
(-0.0080962 0.00088521 0)
(-0.0105208 0.000793736 0)
(-0.0125655 0.000628729 0)
(-0.0140535 0.000410601 0)
(-0.014862 0.000158207 0)
(-0.0149212 -0.000109824 0)
(-0.0142167 -0.000373706 0)
(-0.0127936 -0.000611449 0)
(-0.0107616 -0.00079837 0)
(-0.00829976 -0.000907401 0)
(-0.00565752 -0.00091081 0)
(-0.00314694 -0.00078432 0)
(-0.0011215 -0.000514356 0)
(6.52894e-05 -0.000123588 0)
(0.000203256 0.000199531 0)
(-0.000100685 -6.95888e-05 0)
(-0.00147183 0.00149321 0)
(-0.0049713 0.00312105 0)
(-0.0100452 0.00425577 0)
(-0.0160146 0.00479607 0)
(-0.0222137 0.00477281 0)
(-0.0280199 0.00426534 0)
(-0.0329022 0.00337107 0)
(-0.0364457 0.00219121 0)
(-0.038359 0.000827487 0)
(-0.0384799 -0.000615841 0)
(-0.0367805 -0.00202864 0)
(-0.0333756 -0.00329256 0)
(-0.0285299 -0.00428142 0)
(-0.0226607 -0.00486611 0)
(-0.01633 -0.00492662 0)
(-0.0102099 -0.00437472 0)
(-0.00501691 -0.00318968 0)
(-0.00146075 -0.00150182 0)
(-8.97365e-05 8.97182e-05 0)
(-0.000479978 0.00105973 0)
(-0.00321388 0.00500588 0)
(-0.00899542 0.00868732 0)
(-0.0168005 0.0112254 0)
(-0.0256613 0.0123931 0)
(-0.0346971 0.0122242 0)
(-0.0430763 0.0108782 0)
(-0.0500807 0.00857431 0)
(-0.0551448 0.00555606 0)
(-0.0578708 0.00207814 0)
(-0.0580374 -0.00159418 0)
(-0.0556087 -0.00518139 0)
(-0.0507433 -0.00838764 0)
(-0.0438021 -0.0109051 0)
(-0.0353502 -0.0124291 0)
(-0.0261422 -0.01269 0)
(-0.0170726 -0.0115068 0)
(-0.00909075 -0.00886469 0)
(-0.00321297 -0.00505043 0)
(-0.000467513 -0.00102893 0)
(-0.000805033 0.00311369 0)
(-0.00480271 0.0104542 0)
(-0.0127415 0.0167267 0)
(-0.0230553 0.0209077 0)
(-0.0344661 0.0227098 0)
(-0.0459118 0.0222044 0)
(-0.0564124 0.0196596 0)
(-0.0651298 0.0154472 0)
(-0.0714082 0.00998719 0)
(-0.0747876 0.00372445 0)
(-0.075011 -0.00287567 0)
(-0.0720335 -0.00932366 0)
(-0.0660328 -0.0151043 0)
(-0.0574197 -0.0196857 0)
(-0.046843 -0.0225457 0)
(-0.0351801 -0.023226 0)
(-0.0234866 -0.0214161 0)
(-0.012916 -0.017069 0)
(-0.00482077 -0.0105655 0)
(-0.000791197 -0.00307491 0)
(-0.00108134 0.00596629 0)
(-0.00623169 0.0176549 0)
(-0.0161909 0.0269903 0)
(-0.0288384 0.0329581 0)
(-0.0425698 0.0353159 0)
(-0.0561484 0.0342411 0)
(-0.0684781 0.0301563 0)
(-0.0786442 0.0236181 0)
(-0.0859432 0.0152467 0)
(-0.0898852 0.00569575 0)
(-0.0901937 -0.00435318 0)
(-0.0868118 -0.0141846 0)
(-0.079914 -0.0230455 0)
(-0.0699222 -0.0301558 0)
(-0.0575219 -0.0347442 0)
(-0.0436678 -0.0361199 0)
(-0.029547 -0.0337859 0)
(-0.0165171 -0.0275852 0)
(-0.00629768 -0.0178883 0)
(-0.00107099 -0.00593019 0)
(-0.00133209 0.00953609 0)
(-0.00756049 0.026496 0)
(-0.0194261 0.0393576 0)
(-0.0342567 0.0472307 0)
(-0.0501138 0.0500308 0)
(-0.0655938 0.0481297 0)
(-0.0795103 0.042167 0)
(-0.0909081 0.0329223 0)
(-0.0990726 0.0212369 0)
(-0.103512 0.00798117 0)
(-0.103944 -0.00594615 0)
(-0.100297 -0.0196046 0)
(-0.0927194 -0.0319999 0)
(-0.0816095 -0.0420898 0)
(-0.0676457 -0.0488222 0)
(-0.0518195 -0.0512199 0)
(-0.0354248 -0.0485192 0)
(-0.0200235 -0.04035 0)
(-0.00772735 -0.0269547 0)
(-0.00133619 -0.00953414 0)
(-0.00157844 0.0137847 0)
(-0.00885157 0.0368994 0)
(-0.0225363 0.0537151 0)
(-0.0393989 0.0635681 0)
(-0.0571656 0.0666544 0)
(-0.0742836 0.063646 0)
(-0.0895101 0.0554736 0)
(-0.101892 0.0431836 0)
(-0.110744 0.027855 0)
(-0.115604 0.0105722 0)
(-0.116201 -0.00756402 0)
(-0.112443 -0.0254064 0)
(-0.104434 -0.0417321 0)
(-0.0925075 -0.0552334 0)
(-0.0772871 -0.0645489 0)
(-0.05975 -0.0683528 0)
(-0.041258 -0.0655153 0)
(-0.0235648 -0.055324 0)
(-0.00919528 -0.037756 0)
(-0.00161425 -0.0138831 0)
(-0.00183835 0.0187099 0)
(-0.0101568 0.0488192 0)
(-0.0255834 0.0699442 0)
(-0.0442894 0.0817685 0)
(-0.0636692 0.0849152 0)
(-0.0820557 0.0804815 0)
(-0.0982036 0.0697762 0)
(-0.11122 0.0541575 0)
(-0.120503 0.0349521 0)
(-0.12566 0.0134416 0)
(-0.12645 -0.00910375 0)
(-0.122767 -0.0313684 0)
(-0.114644 -0.0519333 0)
(-0.102309 -0.0692392 0)
(-0.0862649 -0.0815956 0)
(-0.0674034 -0.0872624 0)
(-0.0470887 -0.0846266 0)
(-0.0272273 -0.0724713 0)
(-0.0107715 -0.0503321 0)
(-0.00192909 -0.0190222 0)
(-0.00212869 0.0243384 0)
(-0.011517 0.0622283 0)
(-0.0285881 0.0878965 0)
(-0.048858 0.101545 0)
(-0.0694019 0.104414 0)
(-0.0885011 0.0981821 0)
(-0.10499 0.0846323 0)
(-0.11812 0.0654784 0)
(-0.127442 0.0422928 0)
(-0.132685 0.0165204 0)
(-0.133674 -0.0104534 0)
(-0.130287 -0.0372073 0)
(-0.122473 -0.0621844 0)
(-0.110297 -0.0836116 0)
(-0.0940649 -0.0994682 0)
(-0.0744824 -0.10754 0)
(-0.0528095 -0.105599 0)
(-0.0310254 -0.0917173 0)
(-0.0125045 -0.0647469 0)
(-0.00230236 -0.0250347 0)
(-0.00247032 0.0307222 0)
(-0.0129689 0.0770962 0)
(-0.0315239 0.107344 0)
(-0.0529114 0.122451 0)
(-0.0739238 0.124542 0)
(-0.0928979 0.116062 0)
(-0.108871 0.0993798 0)
(-0.121351 0.0765961 0)
(-0.130131 0.049509 0)
(-0.135129 0.0196699 0)
(-0.136271 -0.0114997 0)
(-0.133441 -0.0425633 0)
(-0.126477 -0.071915 0)
(-0.115238 -0.0976398 0)
(-0.0997377 -0.117418 0)
(-0.0803599 -0.128524 0)
(-0.0581029 -0.127971 0)
(-0.0348744 -0.112871 0)
(-0.0144192 -0.0810453 0)
(-0.0027568 -0.032032 0)
(-0.0028962 0.0379443 0)
(-0.0145553 0.0933599 0)
(-0.034304 0.127906 0)
(-0.0560827 0.143785 0)
(-0.0764955 0.144368 0)
(-0.0941106 0.133108 0)
(-0.108344 0.113056 0)
(-0.119102 0.0867135 0)
(-0.126526 0.0560545 0)
(-0.130793 0.022652 0)
(-0.131976 -0.0121423 0)
(-0.129983 -0.0469943 0)
(-0.124543 -0.0803726 0)
(-0.115262 -0.110335 0)
(-0.101765 -0.134346 0)
(-0.0839572 -0.14917 0)
(-0.0623521 -0.150944 0)
(-0.038548 -0.135515 0)
(-0.0165136 -0.0991929 0)
(-0.00332129 -0.0401461 0)
(-0.00346408 0.046138 0)
(-0.016334 0.110884 0)
(-0.0367384 0.148941 0)
(-0.057726 0.16444 0)
(-0.0759285 0.162512 0)
(-0.0904271 0.147869 0)
(-0.101252 0.124324 0)
(-0.108869 0.0947398 0)
(-0.113871 0.0611739 0)
(-0.116753 0.0251052 0)
(-0.117777 -0.0123122 0)
(-0.116904 -0.0499868 0)
(-0.113767 -0.0866145 0)
(-0.107705 -0.120389 0)
(-0.0978847 -0.148706 0)
(-0.0835634 -0.167911 0)
(-0.0644932 -0.173199 0)
(-0.0415966 -0.158838 0)
(-0.0187446 -0.118986 0)
(-0.00403774 -0.0495274 0)
(-0.00427366 0.0555249 0)
(-0.0183654 0.129379 0)
(-0.0384123 0.169361 0)
(-0.0566893 0.18271 0)
(-0.0703087 0.176976 0)
(-0.0792914 0.158364 0)
(-0.0845616 0.131432 0)
(-0.0872949 0.0992822 0)
(-0.0885961 0.0639054 0)
(-0.089302 0.0265408 0)
(-0.0898799 -0.0119929 0)
(-0.0903729 -0.0509891 0)
(-0.0903633 -0.0895376 0)
(-0.0889616 -0.12617 0)
(-0.0848664 -0.158445 0)
(-0.0765701 -0.182502 0)
(-0.0627635 -0.192671 0)
(-0.0431829 -0.181396 0)
(-0.020983 -0.139901 0)
(-0.00496705 -0.0603448 0)
(-0.00547598 0.0664372 0)
(-0.0206237 0.148178 0)
(-0.0383714 0.187272 0)
(-0.0508411 0.195972 0)
(-0.0564989 0.184966 0)
(-0.0568796 0.162022 0)
(-0.054063 0.132243 0)
(-0.049994 0.0987162 0)
(-0.0462513 0.0631474 0)
(-0.043955 0.0263761 0)
(-0.0437457 -0.0112342 0)
(-0.0457692 -0.0494743 0)
(-0.0496339 -0.0879707 0)
(-0.0543428 -0.125805 0)
(-0.0582429 -0.161009 0)
(-0.0590794 -0.189889 0)
(-0.0542635 -0.206244 0)
(-0.0417371 -0.200702 0)
(-0.0228746 -0.160772 0)
(-0.00617749 -0.072736 0)
(-0.00721551 0.0792399 0)
(-0.0226427 0.165659 0)
(-0.0343387 0.199302 0)
(-0.0361136 0.20024 0)
(-0.0292781 0.182737 0)
(-0.0174685 0.155752 0)
(-0.00398834 0.124421 0)
(0.00860783 0.0913949 0)
(0.0184873 0.0578301 0)
(0.0244322 0.0240297 0)
(0.0257351 -0.0101554 0)
(0.0221525 -0.0450452 0)
(0.0139423 -0.0808664 0)
(0.0019877 -0.117412 0)
(-0.0120091 -0.153513 0)
(-0.0253313 -0.186196 0)
(-0.0341811 -0.209424 0)
(-0.0342141 -0.212579 0)
(-0.0234336 -0.179136 0)
(-0.00765297 -0.0866206 0)
(-0.00929343 0.0945085 0)
(-0.0224101 0.178562 0)
(-0.0208917 0.19993 0)
(-0.00468358 0.190021 0)
(0.0200164 0.165909 0)
(0.0473783 0.136495 0)
(0.073344 0.106025 0)
(0.0952988 0.0761707 0)
(0.111626 0.0473012 0)
(0.121342 0.0191405 0)
(0.123859 -0.00891127 0)
(0.118878 -0.037602 0)
(0.106407 -0.0676755 0)
(0.0869122 -0.0996518 0)
(0.0616342 -0.133398 0)
(0.0330688 -0.167268 0)
(0.00553188 -0.19651 0)
(-0.0145392 -0.210789 0)
(-0.0199451 -0.19064 0)
(-0.00891668 -0.101759 0)
(-0.00977107 0.113831 0)
(-0.0133445 0.181307 0)
(0.0142275 0.181421 0)
(0.0579057 0.15923 0)
(0.105121 0.130907 0)
(0.149429 0.102721 0)
(0.187494 0.0767986 0)
(0.217677 0.053386 0)
(0.239262 0.032016 0)
(0.251914 0.011973 0)
(0.255387 -0.00756976 0)
(0.249399 -0.027526 0)
(0.233632 -0.0488844 0)
(0.20784 -0.0726635 0)
(0.172175 -0.0997156 0)
(0.127831 -0.130126 0)
(0.0779847 -0.161738 0)
(0.0292199 -0.187309 0)
(-0.00527007 -0.188532 0)
(-0.00765567 -0.118263 0)
(0.00111308 0.128886 0)
(0.0243974 0.154781 0)
(0.0970236 0.128675 0)
(0.17628 0.0999006 0)
(0.24581 0.0751427 0)
(0.3033 0.0548951 0)
(0.348783 0.038514 0)
(0.382858 0.0250334 0)
(0.406315 0.013576 0)
(0.419753 0.0034106 0)
(0.423401 -0.00611986 0)
(0.417073 -0.0156826 0)
(0.400147 -0.0260553 0)
(0.371558 -0.0382089 0)
(0.32994 -0.0533751 0)
(0.274062 -0.0729608 0)
(0.203407 -0.0979661 0)
(0.119863 -0.127454 0)
(0.0392925 -0.152812 0)
(0.00569622 -0.125428 0)
(0.0699974 0.0606642 0)
(0.153723 0.0312717 0)
(0.282687 0.00833689 0)
(0.389952 -0.00102195 0)
(0.46761 -0.00480806 0)
(0.524472 -0.00643198 0)
(0.566062 -0.00712074 0)
(0.595544 -0.00730032 0)
(0.615028 -0.00707313 0)
(0.625803 -0.00642346 0)
(0.628449 -0.00530476 0)
(0.6229 -0.00367791 0)
(0.608425 -0.00155407 0)
(0.583501 0.000961915 0)
(0.545617 0.00358335 0)
(0.491039 0.00563016 0)
(0.413792 0.00552811 0)
(0.304514 -0.000300767 0)
(0.168986 -0.0188899 0)
(0.0722289 -0.0458448 0)
(0.397754 -0.21081 0)
(0.554081 -0.189748 0)
(0.67675 -0.136328 0)
(0.751717 -0.0984573 0)
(0.795451 -0.0722502 0)
(0.823602 -0.0537655 0)
(0.842654 -0.0403875 0)
(0.855449 -0.0301136 0)
(0.863538 -0.0215083 0)
(0.867771 -0.0135409 0)
(0.868523 -0.0054006 0)
(0.865788 0.00364019 0)
(0.859169 0.0143532 0)
(0.847751 0.027695 0)
(0.829806 0.0450272 0)
(0.802151 0.0684288 0)
(0.757976 0.101022 0)
(0.68093 0.14774 0)
(0.549245 0.212829 0)
(0.36767 0.232645 0)
)
;

boundaryField
{
    movingWall
    {
        type            fixedValue;
        value           uniform (1 0 0);
    }
    fixedWalls
    {
        type            noSlip;
    }
    frontAndBack
    {
        type            empty;
    }
}


// ************************************************************************* //
