/*--------------------------------*- C++ -*----------------------------------*\
| =========                 |                                                 |
| \\      /  F ield         | OpenFOAM: The Open Source CFD Toolbox           |
|  \\    /   O peration     | Version:  v2012                                 |
|   \\  /    A nd           | Website:  www.openfoam.com                      |
|    \\/     M anipulation  |                                                 |
\*---------------------------------------------------------------------------*/
FoamFile
{
    version     2.0;
    format      ascii;
    class       volScalarField;
    location    "1.1";
    object      p;
}
// * * * * * * * * * * * * * * * * * * * * * * * * * * * * * * * * * * * * * //

dimensions      [0 2 -2 0 0 0 0];


internalField   nonuniform List<scalar> 
400
(
-0.0396143
-0.0444949
-0.0501694
-0.0541736
-0.0551395
-0.0524969
-0.0462531
-0.0368144
-0.0248569
-0.0112415
0.00304614
0.0169501
0.0294052
0.0394146
0.0461523
0.049096
0.0481973
0.0440777
0.038231
0.033255
-0.0347757
-0.0397913
-0.0441807
-0.0467933
-0.0470064
-0.0444223
-0.0390212
-0.031097
-0.0211648
-0.00990039
0.00190935
0.0134157
0.0237654
0.0321695
0.0379876
0.0408287
0.040677
0.0379709
0.0334355
0.0283307
-0.0287793
-0.0356618
-0.0403789
-0.0427088
-0.0427353
-0.040265
-0.0353333
-0.0282174
-0.0193624
-0.0093429
0.0011692
0.0114437
0.0207399
0.0283645
0.0337396
0.0364821
0.0365142
0.034066
0.0291583
0.0221363
-0.0237686
-0.0331321
-0.0389413
-0.0415761
-0.0417005
-0.0393086
-0.0345229
-0.0276562
-0.0191415
-0.00951144
0.000616545
0.0105656
0.0196357
0.027151
0.0325138
0.035274
0.0352439
0.0324598
0.026374
0.0167686
-0.0211313
-0.0329933
-0.0400453
-0.0431048
-0.0433233
-0.0408585
-0.035924
-0.0288864
-0.0201916
-0.0103591
1.65947e-05
0.0102778
0.0197273
0.0276643
0.0334285
0.0364635
0.036449
0.0332392
0.0258045
0.0135376
-0.0218784
-0.0361375
-0.0443915
-0.0478046
-0.0479587
-0.0451594
-0.0397129
-0.0320491
-0.0226423
-0.0120168
-0.0007643
0.0104534
0.0209154
0.0298657
0.0365469
0.0402637
0.0405378
0.0370367
0.0282874
0.0133808
-0.0268757
-0.0434214
-0.0527314
-0.0562858
-0.0560823
-0.0525764
-0.0461727
-0.0373722
-0.0266855
-0.0146509
-0.00186697
0.0109891
0.023157
0.0338039
0.042047
0.0470169
0.0480416
0.044571
0.0346687
0.0171389
-0.037015
-0.0557375
-0.0658565
-0.0691919
-0.0681922
-0.0634862
-0.0555906
-0.0450841
-0.0325155
-0.0184344
-0.00344285
0.0117688
0.0263992
0.0395284
0.0501258
0.0571102
0.0595647
0.0566587
0.0459068
0.0257718
-0.0533481
-0.0741178
-0.084669
-0.0872444
-0.0848332
-0.0782862
-0.0682558
-0.0554042
-0.0403112
-0.0235234
-0.00562701
0.0126936
0.0306109
0.047123
0.0610378
0.0710243
0.0758531
0.0743124
0.0632108
0.0405414
-0.0772103
-0.099826
-0.110225
-0.111239
-0.106559
-0.0973379
-0.0843942
-0.0684759
-0.0501757
-0.0300059
-0.00849943
0.0137055
0.0357924
0.0567031
0.0750887
0.0893357
0.0978226
0.0988132
0.0881699
0.0631889
-0.110385
-0.134471
-0.14377
-0.142017
-0.133861
-0.120869
-0.104063
-0.0842646
-0.0620434
-0.0378246
-0.0120266
0.0148245
0.0419889
0.0684101
0.0926164
0.112701
0.12657
0.131777
0.1229
0.0961556
-0.155383
-0.180164
-0.186764
-0.180392
-0.167042
-0.148832
-0.127006
-0.102425
-0.0755639
-0.0466801
-0.0159875
0.0161964
0.0493102
0.0824
0.113956
0.141815
0.163351
0.175206
0.170218
0.142905
-0.215989
-0.239765
-0.240875
-0.227014
-0.206026
-0.180701
-0.152474
-0.122144
-0.0899759
-0.055934
-0.0199053
0.0181302
0.0579318
0.098805
0.139362
0.177309
0.209509
0.231504
0.233882
0.208484
-0.298464
-0.317374
-0.307985
-0.282171
-0.250111
-0.215252
-0.179049
-0.142026
-0.104031
-0.0645667
-0.0230349
0.0210824
0.0680473
0.117646
0.168879
0.2196
0.266348
0.303522
0.319054
0.300646
-0.413595
-0.41884
-0.389939
-0.345369
-0.297587
-0.250291
-0.204498
-0.160037
-0.116022
-0.07126
-0.0244833
0.0254998
0.079664
0.138561
0.201975
0.268427
0.334639
0.394195
0.43254
0.431479
-0.577896
-0.549589
-0.485856
-0.413274
-0.344299
-0.281733
-0.225256
-0.173286
-0.123761
-0.0745257
-0.0234731
0.031414
0.0920148
0.159951
0.236308
0.321088
0.412177
0.503386
0.579849
0.617342
-0.819212
-0.711146
-0.587839
-0.477041
-0.382179
-0.302901
-0.236203
-0.178079
-0.124781
-0.0729976
-0.0197017
0.0380086
0.103013
0.178249
0.266669
0.370836
0.491261
0.624013
0.761802
0.882626
-1.23849
-0.931291
-0.699556
-0.535816
-0.409983
-0.313134
-0.237469
-0.175179
-0.120243
-0.0680465
-0.0146745
0.0436607
0.110848
0.191357
0.290688
0.415521
0.571457
0.761709
1.00732
1.31774
-2.07403
-1.28781
-0.845861
-0.604909
-0.441237
-0.325129
-0.240727
-0.175023
-0.119228
-0.067272
-0.0143164
0.0440527
0.112731
0.197789
0.307834
0.455553
0.656756
0.93537
1.38691
2.13053
-2.63639
-1.28162
-0.730697
-0.492508
-0.347607
-0.251637
-0.185272
-0.135499
-0.0943118
-0.0564748
-0.0180013
0.024699
0.0755197
0.139556
0.224609
0.344016
0.520597
0.803257
1.3753
2.60138
)
;

boundaryField
{
    movingWall
    {
        type            fixedValue;
        value           uniform 0;
    }
    fixedWalls
    {
        type            zeroGradient;
    }
    frontAndBack
    {
        type            empty;
    }
}


// ************************************************************************* //
