/*--------------------------------*- C++ -*----------------------------------*\
| =========                 |                                                 |
| \\      /  F ield         | OpenFOAM: The Open Source CFD Toolbox           |
|  \\    /   O peration     | Version:  v2012                                 |
|   \\  /    A nd           | Website:  www.openfoam.com                      |
|    \\/     M anipulation  |                                                 |
\*---------------------------------------------------------------------------*/
FoamFile
{
    version     2.0;
    format      ascii;
    class       surfaceScalarField;
    location    "2";
    object      phi;
}
// * * * * * * * * * * * * * * * * * * * * * * * * * * * * * * * * * * * * * //

dimensions      [0 3 -1 0 0 0 0];
oriented        oriented;


internalField   nonuniform List<scalar> 
760
(
1.00774e-08
-1.00775e-08
-2.37004e-08
3.37777e-08
-1.03476e-07
7.97761e-08
-2.14611e-07
1.11136e-07
-3.40517e-07
1.25906e-07
-4.65941e-07
1.25424e-07
-5.78012e-07
1.12071e-07
-6.66565e-07
8.85518e-08
-7.24136e-07
5.75698e-08
-7.45916e-07
2.17797e-08
-7.29794e-07
-1.61204e-08
-6.76517e-07
-5.32757e-08
-5.89924e-07
-8.65922e-08
-4.77196e-07
-1.12728e-07
-3.48999e-07
-1.28198e-07
-2.19339e-07
-1.29661e-07
-1.04849e-07
-1.14491e-07
-2.32026e-08
-8.16461e-08
1.07199e-08
-3.39219e-08
1.07206e-08
-3.21835e-08
2.21062e-08
-1.59286e-07
1.6088e-07
-3.74448e-07
2.94938e-07
-6.50887e-07
3.87575e-07
-9.55695e-07
4.30714e-07
-1.25632e-06
4.26053e-07
-1.52389e-06
3.79637e-07
-1.73479e-06
2.99452e-07
-1.87139e-06
1.94167e-07
-1.92234e-06
7.27321e-08
-1.88288e-06
-5.55783e-08
-1.75517e-06
-1.80986e-07
-1.54867e-06
-2.93094e-07
-1.2804e-06
-3.80996e-07
-9.74811e-07
-4.33786e-07
-6.62826e-07
-4.41647e-07
-3.79545e-07
-3.97773e-07
-1.59978e-07
-3.01213e-07
-3.16124e-08
-1.62288e-07
-2.08913e-08
-8.04988e-08
1.02605e-07
-3.04892e-07
3.85273e-07
-6.45041e-07
6.35087e-07
-1.06126e-06
8.03796e-07
-1.50904e-06
8.78494e-07
-1.94481e-06
8.61818e-07
-2.32967e-06
7.64501e-07
-2.63159e-06
6.01373e-07
-2.8265e-06
3.89074e-07
-2.89891e-06
1.4514e-07
-2.84237e-06
-1.12116e-07
-2.65994e-06
-3.63421e-07
-2.36458e-06
-5.88446e-07
-1.97944e-06
-7.66136e-07
-1.53746e-06
-8.75767e-07
-1.08003e-06
-8.99076e-07
-6.54063e-07
-8.23741e-07
-3.07059e-07
-6.48218e-07
-8.00712e-08
-3.89276e-07
-1.00963e-07
-1.23134e-07
2.2574e-07
-4.39208e-07
7.01347e-07
-8.95974e-07
1.09185e-06
-1.43805e-06
1.34587e-06
-2.00968e-06
1.45012e-06
-2.55864e-06
1.41078e-06
-3.03929e-06
1.24515e-06
-3.41435e-06
9.76432e-07
-3.65593e-06
6.30658e-07
-3.74609e-06
2.35304e-07
-3.67728e-06
-1.80936e-07
-3.45278e-06
-5.87919e-07
-3.08731e-06
-9.53922e-07
-2.60732e-06
-1.24612e-06
-2.05091e-06
-1.43218e-06
-1.46664e-06
-1.48334e-06
-9.10937e-07
-1.37944e-06
-4.43768e-07
-1.11539e-06
-1.22996e-07
-7.10049e-07
-2.23959e-07
-1.60744e-07
3.86485e-07
-5.61851e-07
1.10245e-06
-1.12755e-06
1.65755e-06
-1.78548e-06
2.0038e-06
-2.46833e-06
2.13297e-06
-3.11629e-06
2.05874e-06
-3.67882e-06
1.80768e-06
-4.11557e-06
1.41318e-06
-4.39672e-06
9.11808e-07
-4.50308e-06
3.41667e-07
-4.4263e-06
-2.57711e-07
-4.16931e-06
-8.44911e-07
-3.747e-06
-1.37623e-06
-3.18703e-06
-1.8061e-06
-2.53028e-06
-2.08892e-06
-1.83063e-06
-2.183e-06
-1.15323e-06
-2.05683e-06
-5.71327e-07
-1.69729e-06
-1.61604e-07
-1.11977e-06
-3.85564e-07
-1.95432e-07
5.81916e-07
-6.76494e-07
1.58352e-06
-1.34456e-06
2.32562e-06
-2.10977e-06
2.76901e-06
-2.89321e-06
2.9164e-06
-3.62833e-06
2.79386e-06
-4.26126e-06
2.44061e-06
-4.75041e-06
1.90233e-06
-5.06562e-06
1.22702e-06
-5.18752e-06
4.63572e-07
-5.10723e-06
-3.38001e-07
-4.82666e-06
-1.12548e-06
-4.35947e-06
-1.84342e-06
-3.73252e-06
-2.43305e-06
-2.98742e-06
-2.83402e-06
-2.18166e-06
-2.98876e-06
-1.38852e-06
-2.84997e-06
-6.95199e-07
-2.39061e-06
-1.98677e-07
-1.61629e-06
-5.84241e-07
-2.2915e-07
8.11065e-07
-7.87018e-07
2.14138e-06
-1.55152e-06
3.09012e-06
-2.41485e-06
3.63235e-06
-3.2869e-06
3.78845e-06
-4.09567e-06
3.60263e-06
-4.78591e-06
3.13085e-06
-5.31681e-06
2.43323e-06
-5.65972e-06
1.56993e-06
-5.79626e-06
6.0011e-07
-5.71734e-06
-4.16916e-07
-5.42327e-06
-1.41955e-06
-4.92496e-06
-2.34173e-06
-4.24627e-06
-3.11174e-06
-3.42701e-06
-3.65328e-06
-2.52609e-06
-3.88969e-06
-1.62361e-06
-3.75244e-06
-8.20877e-07
-3.19335e-06
-2.36828e-07
-2.20034e-06
-8.21068e-07
-2.63489e-07
1.07455e-06
-8.96356e-07
2.77425e-06
-1.75066e-06
3.94443e-06
-2.69997e-06
4.58166e-06
-3.64396e-06
4.73245e-06
-4.50742e-06
4.4661e-06
-5.2365e-06
3.85992e-06
-5.79399e-06
2.99072e-06
-6.15506e-06
1.93099e-06
-6.30388e-06
7.48923e-07
-6.23173e-06
-4.89065e-07
-5.93676e-06
-1.71452e-06
-5.4255e-06
-2.85299e-06
-4.71608e-06
-3.82116e-06
-3.84317e-06
-4.52619e-06
-2.86362e-06
-4.86924e-06
-1.8618e-06
-4.75427e-06
-9.52378e-07
-4.10277e-06
-2.78194e-07
-2.87453e-06
-1.09926e-06
-2.99746e-07
1.3743e-06
-1.00614e-06
3.48064e-06
-1.94083e-06
4.87912e-06
-2.95784e-06
5.59867e-06
-3.94861e-06
5.72322e-06
-4.83835e-06
5.35583e-06
-5.57871e-06
4.60028e-06
-6.13995e-06
3.55197e-06
-6.50414e-06
2.29518e-06
-6.66008e-06
9.0486e-07
-6.60036e-06
-5.48787e-07
-6.3206e-06
-1.99427e-06
-5.82112e-06
-3.35247e-06
-5.11115e-06
-4.53113e-06
-4.21562e-06
-5.42171e-06
-3.18421e-06
-5.90066e-06
-2.10087e-06
-5.83761e-06
-1.09139e-06
-5.11225e-06
-3.24373e-07
-3.64154e-06
-1.42363e-06
-3.39241e-07
1.71354e-06
-1.11675e-06
4.25814e-06
-2.11665e-06
5.87902e-06
-3.17268e-06
6.6547e-06
-4.17183e-06
6.72236e-06
-5.04541e-06
6.22941e-06
-5.75649e-06
5.31136e-06
-6.28785e-06
4.08333e-06
-6.63234e-06
2.63967e-06
-6.78601e-06
1.05853e-06
-6.74408e-06
-5.90717e-07
-6.49961e-06
-2.23875e-06
-6.045e-06
-3.80707e-06
-5.37693e-06
-5.1992e-06
-4.50498e-06
-6.29366e-06
-3.46429e-06
-6.94135e-06
-2.3309e-06
-6.971e-06
-1.23657e-06
-6.20658e-06
-3.76508e-07
-4.5016e-06
-1.80014e-06
-3.83802e-07
2.09734e-06
-1.22731e-06
5.10166e-06
-2.26692e-06
6.91863e-06
-3.3169e-06
7.70467e-06
-4.26674e-06
7.67221e-06
-5.06265e-06
7.02532e-06
-5.68703e-06
5.93574e-06
-6.14135e-06
4.53766e-06
-6.43361e-06
2.93193e-06
-6.57003e-06
1.19494e-06
-6.55011e-06
-6.1063e-07
-6.36479e-06
-2.42408e-06
-5.9974e-06
-4.17446e-06
-5.42864e-06
-5.76797e-06
-4.64633e-06
-7.07597e-06
-3.66155e-06
-7.92613e-06
-2.53097e-06
-8.10157e-06
-1.38245e-06
-7.35511e-06
-4.35408e-07
-5.44864e-06
-2.23555e-06
-4.36417e-07
2.53376e-06
-1.33494e-06
6.00018e-06
-2.37096e-06
7.95465e-06
-3.34466e-06
8.67837e-06
-4.16081e-06
8.48837e-06
-4.79329e-06
7.6578e-06
-5.25373e-06
6.39617e-06
-5.56886e-06
4.85279e-06
-5.76589e-06
3.12897e-06
-5.86371e-06
1.29276e-06
-5.86786e-06
-6.06475e-07
-5.76822e-06
-2.52372e-06
-5.53913e-06
-4.40355e-06
-5.1431e-06
-6.164e-06
-4.54029e-06
-7.67878e-06
-3.70665e-06
-8.75977e-06
-2.66342e-06
-9.1448e-06
-1.51709e-06
-8.50145e-06
-5.01581e-07
-6.46414e-06
-2.73713e-06
-5.01825e-07
3.03559e-06
-1.43145e-06
6.9298e-06
-2.38977e-06
8.91298e-06
-3.17929e-06
9.46788e-06
-3.74221e-06
9.05129e-06
-4.09754e-06
8.01313e-06
-4.29678e-06
6.59542e-06
-4.39718e-06
4.95318e-06
-4.44723e-06
3.17902e-06
-4.47946e-06
1.325e-06
-4.50665e-06
-5.79292e-07
-4.51944e-06
-2.51092e-06
-4.48525e-06
-4.43774e-06
-4.34925e-06
-6.3e-06
-4.04079e-06
-7.98725e-06
-3.49029e-06
-9.31027e-06
-2.66334e-06
-9.97174e-06
-1.61688e-06
-9.54791e-06
-5.74799e-07
-7.50622e-06
-3.31193e-06
-5.8572e-07
3.62131e-06
-1.49339e-06
7.83748e-06
-2.24619e-06
9.66577e-06
-2.68886e-06
9.91056e-06
-2.8367e-06
9.19913e-06
-2.77434e-06
7.95077e-06
-2.60114e-06
6.42221e-06
-2.40529e-06
4.75734e-06
-2.25416e-06
3.02788e-06
-2.19164e-06
1.26248e-06
-2.2374e-06
-5.33533e-07
-2.38535e-06
-2.36296e-06
-2.60093e-06
-4.22217e-06
-2.81795e-06
-6.08298e-06
-2.93843e-06
-7.86676e-06
-2.8423e-06
-9.40641e-06
-2.41884e-06
-1.03952e-05
-1.63447e-06
-1.03323e-05
-6.51559e-07
-8.48913e-06
-3.96349e-06
-6.87633e-07
4.30894e-06
-1.45333e-06
8.60317e-06
-1.78072e-06
9.99317e-06
-1.64054e-06
9.77037e-06
-1.17021e-06
8.7288e-06
-5.36099e-07
7.31665e-06
1.16927e-07
5.76919e-06
6.79312e-07
4.19495e-06
1.07504e-06
2.63216e-06
1.25612e-06
1.0814e-06
1.19879e-06
-4.762e-07
9.033e-07
-2.06747e-06
3.97975e-07
-3.71684e-06
-2.52792e-07
-5.43221e-06
-9.38587e-07
-7.18097e-06
-1.4978e-06
-8.8472e-06
-1.73257e-06
-1.01604e-05
-1.46954e-06
-1.05953e-05
-7.15538e-07
-9.24314e-06
-4.67903e-06
-7.73687e-07
5.08262e-06
-1.12387e-06
8.95336e-06
-6.58759e-07
9.52805e-06
3.78978e-07
8.73264e-06
1.68541e-06
7.42237e-06
3.02058e-06
5.98148e-06
4.21935e-06
4.57042e-06
5.17655e-06
3.23775e-06
5.82757e-06
1.98114e-06
6.13327e-06
7.75704e-07
6.07145e-06
-4.14381e-07
5.63472e-06
-1.63075e-06
4.83473e-06
-2.91685e-06
3.71371e-06
-4.31119e-06
2.36432e-06
-5.83157e-06
9.55389e-07
-7.43827e-06
-2.48125e-07
-8.95692e-06
-8.99754e-07
-9.94368e-06
-7.08752e-07
-9.43414e-06
-5.38778e-06
-6.88927e-07
5.77155e-06
-1.64587e-08
8.28089e-06
1.79799e-06
7.7136e-06
4.07625e-06
6.45437e-06
6.36849e-06
5.13014e-06
8.42937e-06
3.9206e-06
1.01352e-05
2.86461e-06
1.14287e-05
1.94421e-06
1.22842e-05
1.12564e-06
1.26871e-05
3.72766e-07
1.26242e-05
-3.51472e-07
1.20804e-05
-1.08697e-06
1.10415e-05
-1.87787e-06
9.50442e-06
-2.77415e-06
7.50097e-06
-3.82812e-06
5.13927e-06
-5.07657e-06
2.66875e-06
-6.4864e-06
5.64636e-07
-7.83957e-06
-4.45862e-07
-8.42364e-06
-5.83364e-06
1.83877e-07
5.58767e-06
3.04719e-06
5.41758e-06
6.87958e-06
3.88121e-06
1.05662e-05
2.76774e-06
1.374e-05
1.95639e-06
1.63143e-05
1.34624e-06
1.83005e-05
8.78445e-07
1.97366e-05
5.08104e-07
2.06579e-05
2.04361e-07
2.10848e-05
-5.41678e-08
2.1018e-05
-2.84643e-07
2.04376e-05
-5.06531e-07
1.93013e-05
-7.41586e-07
1.75479e-05
-1.02081e-06
1.51088e-05
-1.38903e-06
1.19418e-05
-1.90949e-06
8.11463e-06
-2.65926e-06
3.99364e-06
-3.71858e-06
6.67419e-07
-5.09742e-06
-5.16622e-06
4.12593e-06
1.46175e-06
1.11336e-05
-1.59007e-06
1.7009e-05
-1.99423e-06
2.14855e-05
-1.70872e-06
2.48268e-05
-1.38497e-06
2.72837e-05
-1.11062e-06
2.90539e-05
-8.91777e-07
3.02738e-05
-7.11795e-07
3.10284e-05
-5.50208e-07
3.13632e-05
-3.89033e-07
3.12914e-05
-2.1282e-07
3.07927e-05
-7.75894e-09
2.98116e-05
2.39433e-07
2.82478e-05
5.43007e-07
2.59411e-05
9.1765e-07
2.26582e-05
1.37347e-06
1.81067e-05
1.89217e-06
1.20233e-05
2.36487e-06
4.68273e-06
2.24314e-06
-4.8349e-07
2.14348e-05
3.13749e-05
3.59838e-05
3.87343e-05
4.05004e-05
4.16726e-05
4.24626e-05
4.29812e-05
4.32877e-05
4.34119e-05
4.33627e-05
4.31303e-05
4.26828e-05
4.19556e-05
4.08276e-05
3.90647e-05
3.62036e-05
3.1217e-05
2.0812e-05
)
;

boundaryField
{
    movingWall
    {
        type            calculated;
        value           nonuniform List<scalar> 
20
(
-1.99731e-05
-1.15302e-05
-6.60306e-06
-4.45927e-06
-3.15103e-06
-2.28287e-06
-1.68172e-06
-1.23043e-06
-8.56713e-07
-5.13168e-07
-1.63624e-07
2.24582e-07
6.86972e-07
1.27015e-06
2.04571e-06
3.13636e-06
4.75324e-06
7.35146e-06
1.26482e-05
2.03285e-05
)
;
    }
    fixedWalls
    {
        type            calculated;
        value           uniform 0;
    }
    frontAndBack
    {
        type            empty;
        value           nonuniform List<scalar> 0();
    }
}


// ************************************************************************* //
